LAMMPS (4 Jul 2026)
Arg 0: IS DEVICE PTR, val=0x10553c000 buf=0x100a5fe30 offset=0
GPU ainum = 1, inum = 1
