LAMMPS (4 Jul 2026)
cuModuleLoadDataEx called
cuModuleLoadDataEx success
cuModuleGetFunction called for kernel_zero
cuModuleGetFunction success for kernel_zero
cuModuleGetFunction called for kernel_info
cuModuleGetFunction success for kernel_info
Arg 0: IS DEVICE PTR, val=0x105640000 buf=0x10114e620 offset=0
cuLaunchKernel: gridDimX=1 blockDimX=1 numArgs=1
GPU ainum = 1, inum = 1
ptx_arch: 9, gpu->arch: 9
Passed ptx_arch check
Config id set
Simd size set
Finished assigning variables
Passed configuration check
Finished compile_kernels and serialize_init
Setting up auto cell size
Finished neighbor auto cell size
Step 1: packages
Step 2: units
Step 3: read_data
Reading data file ...
  orthogonal box = (35 35 35) to (48 48 48)
  1 by 1 by 1 MPI processor grid
  reading atoms ...
  21 atoms
  read_data CPU = 0.000 seconds
Step 4: pair_style
WARNING: Ignoring inactive control parameter: simulation_name (src/REAXFF/reaxff_control.cpp:94)
WARNING: Ignoring inactive control parameter: energy_update_freq (src/REAXFF/reaxff_control.cpp:94)
WARNING: Support for writing native trajectories has been removed after LAMMPS version 8 April 2021 (src/REAXFF/reaxff_control.cpp:109)
WARNING: Ignoring inactive control parameter: traj_title (src/REAXFF/reaxff_control.cpp:94)
WARNING: Ignoring inactive control parameter: atom_info (src/REAXFF/reaxff_control.cpp:94)
WARNING: Ignoring inactive control parameter: atom_forces (src/REAXFF/reaxff_control.cpp:94)
WARNING: Ignoring inactive control parameter: atom_velocities (src/REAXFF/reaxff_control.cpp:94)
WARNING: Ignoring inactive control parameter: bond_info (src/REAXFF/reaxff_control.cpp:94)
WARNING: Ignoring inactive control parameter: angle_info (src/REAXFF/reaxff_control.cpp:94)
Step 5: pair_coeff
Reading potential file ffield.reax with DATE: 2010-02-19
Step 6: neighbor
Step 7: fix
Step 8: run

CITE-CITE-CITE-CITE-CITE-CITE-CITE-CITE-CITE-CITE-CITE-CITE-CITE

Your simulation uses code contributions which should be cited:
- GPU package (short-range, long-range and three-body potentials): https://doi.org/10.1016/j.cpc.2010.12.021, https://doi.org/10.1016/j.cpc.2011.10.012, https://doi.org/10.1016/j.cpc.2013.08.002, https://doi.org/10.1016/j.commatsci.2014.10.068, https://doi.org/10.1016/j.cpc.2016.10.020, https://doi.org/10.3233/APC200086
- pair reaxff command: https://doi.org/10.1016/j.parco.2011.08.005
- fix qeq/reaxff command: https://doi.org/10.1016/j.parco.2011.08.005
The log file lists these citations in BibTeX format.

CITE-CITE-CITE-CITE-CITE-CITE-CITE-CITE-CITE-CITE-CITE-CITE-CITE


--------------------------------------------------------------------------
- Using acceleration for reaxff:
-  with 1 proc(s) per device.
-  Horizontal vector operations: DISABLED
-  Shared memory system: No
--------------------------------------------------------------------------
Device 0: Apple Metal, 16 CUs, 12/12 GB, 1 GHZ (Single Precision)
--------------------------------------------------------------------------

Initializing Device and compiling on process 0...cuModuleLoadDataEx called
cuModuleLoadDataEx success
cuModuleGetFunction called for k_qeq_matvec_fast
Found function: k_qeq_matvec
Found function: k_reaxff_stub
Could not find function: k_qeq_matvec_fast
UCL Error: Could not find function: k_qeq_matvec_fast in program.
cuModuleGetFunction called for k_qeq_matvec
cuModuleGetFunction success for k_qeq_matvec
cuModuleLoadDataEx called
cuModuleLoadDataEx success
cuModuleGetFunction called for kernel_unpack
cuModuleGetFunction success for kernel_unpack
cuModuleLoadDataEx called
cuModuleLoadDataEx success
cuModuleGetFunction called for k_qeq_matvec
cuModuleGetFunction success for k_qeq_matvec
Done.
Initializing Device 0 on core 0...Done.

Arg 0: IS DEVICE PTR, val=0x105645200 buf=0x772cd25f80 offset=0
Arg 1: IS VALUE, size=4
cuLaunchKernel: gridDimX=1 blockDimX=256 numArgs=2
GPU ainum = 256, inum = 256
Arg 0: IS DEVICE PTR, val=0x105645200 buf=0x772cd25f80 offset=0
Arg 1: IS VALUE, size=4
cuLaunchKernel: gridDimX=1 blockDimX=256 numArgs=2
GPU ainum = 256, inum = 256
Arg 0: IS DEVICE PTR, val=0x105645200 buf=0x772cd25f80 offset=0
Arg 1: IS VALUE, size=4
cuLaunchKernel: gridDimX=1 blockDimX=256 numArgs=2
GPU ainum = 256, inum = 256
Arg 0: IS DEVICE PTR, val=0x105645200 buf=0x772cd25f80 offset=0
Arg 1: IS VALUE, size=4
cuLaunchKernel: gridDimX=1 blockDimX=256 numArgs=2
GPU ainum = 256, inum = 256
Arg 0: IS DEVICE PTR, val=0x105645200 buf=0x772cd25f80 offset=0
Arg 1: IS VALUE, size=4
cuLaunchKernel: gridDimX=1 blockDimX=256 numArgs=2
GPU ainum = 256, inum = 256
Arg 0: IS DEVICE PTR, val=0x105645200 buf=0x772cd25f80 offset=0
Arg 1: IS VALUE, size=4
cuLaunchKernel: gridDimX=1 blockDimX=256 numArgs=2
GPU ainum = 256, inum = 256
Arg 0: IS DEVICE PTR, val=0x105645200 buf=0x772cd25f80 offset=0
Arg 1: IS VALUE, size=4
cuLaunchKernel: gridDimX=1 blockDimX=256 numArgs=2
GPU ainum = 256, inum = 256
Arg 0: IS DEVICE PTR, val=0x105645200 buf=0x772cd25f80 offset=0
Arg 1: IS VALUE, size=4
cuLaunchKernel: gridDimX=1 blockDimX=256 numArgs=2
GPU ainum = 256, inum = 256
Arg 0: IS DEVICE PTR, val=0x105645200 buf=0x772cd25f80 offset=0
Arg 1: IS VALUE, size=4
cuLaunchKernel: gridDimX=1 blockDimX=256 numArgs=2
GPU ainum = 256, inum = 256
Arg 0: IS DEVICE PTR, val=0x105645200 buf=0x772cd25f80 offset=0
Arg 1: IS VALUE, size=4
cuLaunchKernel: gridDimX=1 blockDimX=256 numArgs=2
GPU ainum = 256, inum = 256
Arg 0: IS DEVICE PTR, val=0x105645200 buf=0x772cd25f80 offset=0
Arg 1: IS VALUE, size=4
cuLaunchKernel: gridDimX=1 blockDimX=256 numArgs=2
GPU ainum = 256, inum = 256
Neighbor list info ...
  update: every = 10 steps, delay = 0 steps, check = no
  max neighbors/atom: 2000, page size: 100000
  master list distance cutoff = 12.5
  ghost atom cutoff = 12.5
  binsize = 6.25, bins = 3 3 3
  3 neighbor lists, perpetual/occasional/extra = 3 0 0
  (1) pair reaxff/gpu, perpetual
      attributes: half, newton off, ghost
      pair build: half/bin/ghost/newtoff
      stencil: full/ghost/bin/3d
      bin: standard
  (2) pair reaxff/gpu, perpetual, copy from (1)
      attributes: half, newton off
      pair build: copy
      stencil: none
      bin: none
  (3) fix qeq/reaxff/gpu, perpetual, copy from (1)
      attributes: half, newton off
      pair build: copy
      stencil: none
      bin: none
Setting up Verlet run ...
  Unit style    : real
  Current step  : 0
  Time step     : 0.25
Arg 0: IS DEVICE PTR, val=0x105644f00 buf=0x772cd25f80 offset=0
Arg 1: IS DEVICE PTR, val=0x105645000 buf=0x772cd25dc0 offset=0
Arg 2: IS DEVICE PTR, val=0x105648600 buf=0x772cd26680 offset=0
Arg 3: IS DEVICE PTR, val=0x105645900 buf=0x772cd25a40 offset=0
Arg 4: IS DEVICE PTR, val=0x105646200 buf=0x772cd25c00 offset=0
Arg 5: IS DEVICE PTR, val=0x105646b00 buf=0x772cd26140 offset=0
Arg 6: IS DEVICE PTR, val=0x105648700 buf=0x772cd26840 offset=0
Arg 7: IS DEVICE PTR, val=0x105648c00 buf=0x772cd26a00 offset=0
Arg 8: IS DEVICE PTR, val=0x105647400 buf=0x772cd26300 offset=0
Arg 9: IS DEVICE PTR, val=0x105647d00 buf=0x772cd264c0 offset=0
Arg 10: IS VALUE, size=4
Arg 11: IS VALUE, size=4
cuLaunchKernel: gridDimX=1 blockDimX=256 numArgs=12
GPU ainum = 256, inum = 256
Arg 0: IS DEVICE PTR, val=0x105644f00 buf=0x772cd25f80 offset=0
Arg 1: IS DEVICE PTR, val=0x105645000 buf=0x772cd25dc0 offset=0
Arg 2: IS DEVICE PTR, val=0x105648600 buf=0x772cd26680 offset=0
Arg 3: IS DEVICE PTR, val=0x105645900 buf=0x772cd25a40 offset=0
Arg 4: IS DEVICE PTR, val=0x105646200 buf=0x772cd25c00 offset=0
Arg 5: IS DEVICE PTR, val=0x105646b00 buf=0x772cd26140 offset=0
Arg 6: IS DEVICE PTR, val=0x105648700 buf=0x772cd26840 offset=0
Arg 7: IS DEVICE PTR, val=0x105648c00 buf=0x772cd26a00 offset=0
Arg 8: IS DEVICE PTR, val=0x105647400 buf=0x772cd26300 offset=0
Arg 9: IS DEVICE PTR, val=0x105647d00 buf=0x772cd264c0 offset=0
Arg 10: IS VALUE, size=4
Arg 11: IS VALUE, size=4
cuLaunchKernel: gridDimX=1 blockDimX=256 numArgs=12
GPU ainum = 256, inum = 256
Arg 0: IS DEVICE PTR, val=0x105644f00 buf=0x772cd25f80 offset=0
Arg 1: IS DEVICE PTR, val=0x105645000 buf=0x772cd25dc0 offset=0
Arg 2: IS DEVICE PTR, val=0x105648600 buf=0x772cd26680 offset=0
Arg 3: IS DEVICE PTR, val=0x105645900 buf=0x772cd25a40 offset=0
Arg 4: IS DEVICE PTR, val=0x105646200 buf=0x772cd25c00 offset=0
Arg 5: IS DEVICE PTR, val=0x105646b00 buf=0x772cd26140 offset=0
Arg 6: IS DEVICE PTR, val=0x105648700 buf=0x772cd26840 offset=0
Arg 7: IS DEVICE PTR, val=0x105648c00 buf=0x772cd26a00 offset=0
Arg 8: IS DEVICE PTR, val=0x105647400 buf=0x772cd26300 offset=0
Arg 9: IS DEVICE PTR, val=0x105647d00 buf=0x772cd264c0 offset=0
Arg 10: IS VALUE, size=4
Arg 11: IS VALUE, size=4
cuLaunchKernel: gridDimX=1 blockDimX=256 numArgs=12
GPU ainum = 256, inum = 256
Arg 0: IS DEVICE PTR, val=0x105644f00 buf=0x772cd25f80 offset=0
Arg 1: IS DEVICE PTR, val=0x105645000 buf=0x772cd25dc0 offset=0
Arg 2: IS DEVICE PTR, val=0x105648600 buf=0x772cd26680 offset=0
Arg 3: IS DEVICE PTR, val=0x105645900 buf=0x772cd25a40 offset=0
Arg 4: IS DEVICE PTR, val=0x105646200 buf=0x772cd25c00 offset=0
Arg 5: IS DEVICE PTR, val=0x105646b00 buf=0x772cd26140 offset=0
Arg 6: IS DEVICE PTR, val=0x105648700 buf=0x772cd26840 offset=0
Arg 7: IS DEVICE PTR, val=0x105648c00 buf=0x772cd26a00 offset=0
Arg 8: IS DEVICE PTR, val=0x105647400 buf=0x772cd26300 offset=0
Arg 9: IS DEVICE PTR, val=0x105647d00 buf=0x772cd264c0 offset=0
Arg 10: IS VALUE, size=4
Arg 11: IS VALUE, size=4
cuLaunchKernel: gridDimX=1 blockDimX=256 numArgs=12
GPU ainum = 256, inum = 256
Arg 0: IS DEVICE PTR, val=0x105644f00 buf=0x772cd25f80 offset=0
Arg 1: IS DEVICE PTR, val=0x105645000 buf=0x772cd25dc0 offset=0
Arg 2: IS DEVICE PTR, val=0x105648600 buf=0x772cd26680 offset=0
Arg 3: IS DEVICE PTR, val=0x105645900 buf=0x772cd25a40 offset=0
Arg 4: IS DEVICE PTR, val=0x105646200 buf=0x772cd25c00 offset=0
Arg 5: IS DEVICE PTR, val=0x105646b00 buf=0x772cd26140 offset=0
Arg 6: IS DEVICE PTR, val=0x105648700 buf=0x772cd26840 offset=0
Arg 7: IS DEVICE PTR, val=0x105648c00 buf=0x772cd26a00 offset=0
Arg 8: IS DEVICE PTR, val=0x105647400 buf=0x772cd26300 offset=0
Arg 9: IS DEVICE PTR, val=0x105647d00 buf=0x772cd264c0 offset=0
Arg 10: IS VALUE, size=4
Arg 11: IS VALUE, size=4
cuLaunchKernel: gridDimX=1 blockDimX=256 numArgs=12
GPU ainum = 256, inum = 256
Arg 0: IS DEVICE PTR, val=0x105644f00 buf=0x772cd25f80 offset=0
Arg 1: IS DEVICE PTR, val=0x105645000 buf=0x772cd25dc0 offset=0
Arg 2: IS DEVICE PTR, val=0x105648600 buf=0x772cd26680 offset=0
Arg 3: IS DEVICE PTR, val=0x105645900 buf=0x772cd25a40 offset=0
Arg 4: IS DEVICE PTR, val=0x105646200 buf=0x772cd25c00 offset=0
Arg 5: IS DEVICE PTR, val=0x105646b00 buf=0x772cd26140 offset=0
Arg 6: IS DEVICE PTR, val=0x105648700 buf=0x772cd26840 offset=0
Arg 7: IS DEVICE PTR, val=0x105648c00 buf=0x772cd26a00 offset=0
Arg 8: IS DEVICE PTR, val=0x105647400 buf=0x772cd26300 offset=0
Arg 9: IS DEVICE PTR, val=0x105647d00 buf=0x772cd264c0 offset=0
Arg 10: IS VALUE, size=4
Arg 11: IS VALUE, size=4
cuLaunchKernel: gridDimX=1 blockDimX=256 numArgs=12
GPU ainum = 256, inum = 256
Arg 0: IS DEVICE PTR, val=0x105644f00 buf=0x772cd25f80 offset=0
Arg 1: IS DEVICE PTR, val=0x105645000 buf=0x772cd25dc0 offset=0
Arg 2: IS DEVICE PTR, val=0x105648600 buf=0x772cd26680 offset=0
Arg 3: IS DEVICE PTR, val=0x105645900 buf=0x772cd25a40 offset=0
Arg 4: IS DEVICE PTR, val=0x105646200 buf=0x772cd25c00 offset=0
Arg 5: IS DEVICE PTR, val=0x105646b00 buf=0x772cd26140 offset=0
Arg 6: IS DEVICE PTR, val=0x105648700 buf=0x772cd26840 offset=0
Arg 7: IS DEVICE PTR, val=0x105648c00 buf=0x772cd26a00 offset=0
Arg 8: IS DEVICE PTR, val=0x105647400 buf=0x772cd26300 offset=0
Arg 9: IS DEVICE PTR, val=0x105647d00 buf=0x772cd264c0 offset=0
Arg 10: IS VALUE, size=4
Arg 11: IS VALUE, size=4
cuLaunchKernel: gridDimX=1 blockDimX=256 numArgs=12
GPU ainum = 256, inum = 256
Arg 0: IS DEVICE PTR, val=0x105644f00 buf=0x772cd25f80 offset=0
Arg 1: IS DEVICE PTR, val=0x105645000 buf=0x772cd25dc0 offset=0
Arg 2: IS DEVICE PTR, val=0x105648600 buf=0x772cd26680 offset=0
Arg 3: IS DEVICE PTR, val=0x105645900 buf=0x772cd25a40 offset=0
Arg 4: IS DEVICE PTR, val=0x105646200 buf=0x772cd25c00 offset=0
Arg 5: IS DEVICE PTR, val=0x105646b00 buf=0x772cd26140 offset=0
Arg 6: IS DEVICE PTR, val=0x105648700 buf=0x772cd26840 offset=0
Arg 7: IS DEVICE PTR, val=0x105648c00 buf=0x772cd26a00 offset=0
Arg 8: IS DEVICE PTR, val=0x105647400 buf=0x772cd26300 offset=0
Arg 9: IS DEVICE PTR, val=0x105647d00 buf=0x772cd264c0 offset=0
Arg 10: IS VALUE, size=4
Arg 11: IS VALUE, size=4
cuLaunchKernel: gridDimX=1 blockDimX=256 numArgs=12
GPU ainum = 256, inum = 256
Arg 0: IS DEVICE PTR, val=0x105644f00 buf=0x772cd25f80 offset=0
Arg 1: IS DEVICE PTR, val=0x105645000 buf=0x772cd25dc0 offset=0
Arg 2: IS DEVICE PTR, val=0x105648600 buf=0x772cd26680 offset=0
Arg 3: IS DEVICE PTR, val=0x105645900 buf=0x772cd25a40 offset=0
Arg 4: IS DEVICE PTR, val=0x105646200 buf=0x772cd25c00 offset=0
Arg 5: IS DEVICE PTR, val=0x105646b00 buf=0x772cd26140 offset=0
Arg 6: IS DEVICE PTR, val=0x105648700 buf=0x772cd26840 offset=0
Arg 7: IS DEVICE PTR, val=0x105648c00 buf=0x772cd26a00 offset=0
Arg 8: IS DEVICE PTR, val=0x105647400 buf=0x772cd26300 offset=0
Arg 9: IS DEVICE PTR, val=0x105647d00 buf=0x772cd264c0 offset=0
Arg 10: IS VALUE, size=4
Arg 11: IS VALUE, size=4
cuLaunchKernel: gridDimX=1 blockDimX=256 numArgs=12
GPU ainum = 256, inum = 256
Arg 0: IS DEVICE PTR, val=0x105644f00 buf=0x772cd25f80 offset=0
Arg 1: IS DEVICE PTR, val=0x105645000 buf=0x772cd25dc0 offset=0
Arg 2: IS DEVICE PTR, val=0x105648600 buf=0x772cd26680 offset=0
Arg 3: IS DEVICE PTR, val=0x105645900 buf=0x772cd25a40 offset=0
Arg 4: IS DEVICE PTR, val=0x105646200 buf=0x772cd25c00 offset=0
Arg 5: IS DEVICE PTR, val=0x105646b00 buf=0x772cd26140 offset=0
Arg 6: IS DEVICE PTR, val=0x105648700 buf=0x772cd26840 offset=0
Arg 7: IS DEVICE PTR, val=0x105648c00 buf=0x772cd26a00 offset=0
Arg 8: IS DEVICE PTR, val=0x105647400 buf=0x772cd26300 offset=0
Arg 9: IS DEVICE PTR, val=0x105647d00 buf=0x772cd264c0 offset=0
Arg 10: IS VALUE, size=4
Arg 11: IS VALUE, size=4
cuLaunchKernel: gridDimX=1 blockDimX=256 numArgs=12
GPU ainum = 256, inum = 256
Arg 0: IS DEVICE PTR, val=0x105644f00 buf=0x772cd25f80 offset=0
Arg 1: IS DEVICE PTR, val=0x105645000 buf=0x772cd25dc0 offset=0
Arg 2: IS DEVICE PTR, val=0x105648600 buf=0x772cd26680 offset=0
Arg 3: IS DEVICE PTR, val=0x105645900 buf=0x772cd25a40 offset=0
Arg 4: IS DEVICE PTR, val=0x105646200 buf=0x772cd25c00 offset=0
Arg 5: IS DEVICE PTR, val=0x105646b00 buf=0x772cd26140 offset=0
Arg 6: IS DEVICE PTR, val=0x105648700 buf=0x772cd26840 offset=0
Arg 7: IS DEVICE PTR, val=0x105648c00 buf=0x772cd26a00 offset=0
Arg 8: IS DEVICE PTR, val=0x105647400 buf=0x772cd26300 offset=0
Arg 9: IS DEVICE PTR, val=0x105647d00 buf=0x772cd264c0 offset=0
Arg 10: IS VALUE, size=4
Arg 11: IS VALUE, size=4
cuLaunchKernel: gridDimX=1 blockDimX=256 numArgs=12
GPU ainum = 256, inum = 256
Arg 0: IS DEVICE PTR, val=0x105644f00 buf=0x772cd25f80 offset=0
Arg 1: IS DEVICE PTR, val=0x105645000 buf=0x772cd25dc0 offset=0
Arg 2: IS DEVICE PTR, val=0x105648600 buf=0x772cd26680 offset=0
Arg 3: IS DEVICE PTR, val=0x105645900 buf=0x772cd25a40 offset=0
Arg 4: IS DEVICE PTR, val=0x105646200 buf=0x772cd25c00 offset=0
Arg 5: IS DEVICE PTR, val=0x105646b00 buf=0x772cd26140 offset=0
Arg 6: IS DEVICE PTR, val=0x105648700 buf=0x772cd26840 offset=0
Arg 7: IS DEVICE PTR, val=0x105648c00 buf=0x772cd26a00 offset=0
Arg 8: IS DEVICE PTR, val=0x105647400 buf=0x772cd26300 offset=0
Arg 9: IS DEVICE PTR, val=0x105647d00 buf=0x772cd264c0 offset=0
Arg 10: IS VALUE, size=4
Arg 11: IS VALUE, size=4
cuLaunchKernel: gridDimX=1 blockDimX=256 numArgs=12
GPU ainum = 256, inum = 256
Arg 0: IS DEVICE PTR, val=0x105644f00 buf=0x772cd25f80 offset=0
Arg 1: IS DEVICE PTR, val=0x105645000 buf=0x772cd25dc0 offset=0
Arg 2: IS DEVICE PTR, val=0x105648600 buf=0x772cd26680 offset=0
Arg 3: IS DEVICE PTR, val=0x105645900 buf=0x772cd25a40 offset=0
Arg 4: IS DEVICE PTR, val=0x105646200 buf=0x772cd25c00 offset=0
Arg 5: IS DEVICE PTR, val=0x105646b00 buf=0x772cd26140 offset=0
Arg 6: IS DEVICE PTR, val=0x105648700 buf=0x772cd26840 offset=0
Arg 7: IS DEVICE PTR, val=0x105648c00 buf=0x772cd26a00 offset=0
Arg 8: IS DEVICE PTR, val=0x105647400 buf=0x772cd26300 offset=0
Arg 9: IS DEVICE PTR, val=0x105647d00 buf=0x772cd264c0 offset=0
Arg 10: IS VALUE, size=4
Arg 11: IS VALUE, size=4
cuLaunchKernel: gridDimX=1 blockDimX=256 numArgs=12
GPU ainum = 256, inum = 256
Arg 0: IS DEVICE PTR, val=0x105644f00 buf=0x772cd25f80 offset=0
Arg 1: IS DEVICE PTR, val=0x105645000 buf=0x772cd25dc0 offset=0
Arg 2: IS DEVICE PTR, val=0x105648600 buf=0x772cd26680 offset=0
Arg 3: IS DEVICE PTR, val=0x105645900 buf=0x772cd25a40 offset=0
Arg 4: IS DEVICE PTR, val=0x105646200 buf=0x772cd25c00 offset=0
Arg 5: IS DEVICE PTR, val=0x105646b00 buf=0x772cd26140 offset=0
Arg 6: IS DEVICE PTR, val=0x105648700 buf=0x772cd26840 offset=0
Arg 7: IS DEVICE PTR, val=0x105648c00 buf=0x772cd26a00 offset=0
Arg 8: IS DEVICE PTR, val=0x105647400 buf=0x772cd26300 offset=0
Arg 9: IS DEVICE PTR, val=0x105647d00 buf=0x772cd264c0 offset=0
Arg 10: IS VALUE, size=4
Arg 11: IS VALUE, size=4
cuLaunchKernel: gridDimX=1 blockDimX=256 numArgs=12
GPU ainum = 256, inum = 256
Arg 0: IS DEVICE PTR, val=0x105644f00 buf=0x772cd25f80 offset=0
Arg 1: IS DEVICE PTR, val=0x105645000 buf=0x772cd25dc0 offset=0
Arg 2: IS DEVICE PTR, val=0x105648600 buf=0x772cd26680 offset=0
Arg 3: IS DEVICE PTR, val=0x105645900 buf=0x772cd25a40 offset=0
Arg 4: IS DEVICE PTR, val=0x105646200 buf=0x772cd25c00 offset=0
Arg 5: IS DEVICE PTR, val=0x105646b00 buf=0x772cd26140 offset=0
Arg 6: IS DEVICE PTR, val=0x105648700 buf=0x772cd26840 offset=0
Arg 7: IS DEVICE PTR, val=0x105648c00 buf=0x772cd26a00 offset=0
Arg 8: IS DEVICE PTR, val=0x105647400 buf=0x772cd26300 offset=0
Arg 9: IS DEVICE PTR, val=0x105647d00 buf=0x772cd264c0 offset=0
Arg 10: IS VALUE, size=4
Arg 11: IS VALUE, size=4
cuLaunchKernel: gridDimX=1 blockDimX=256 numArgs=12
GPU ainum = 256, inum = 256
Arg 0: IS DEVICE PTR, val=0x105644f00 buf=0x772cd25f80 offset=0
Arg 1: IS DEVICE PTR, val=0x105645000 buf=0x772cd25dc0 offset=0
Arg 2: IS DEVICE PTR, val=0x105648600 buf=0x772cd26680 offset=0
Arg 3: IS DEVICE PTR, val=0x105645900 buf=0x772cd25a40 offset=0
Arg 4: IS DEVICE PTR, val=0x105646200 buf=0x772cd25c00 offset=0
Arg 5: IS DEVICE PTR, val=0x105646b00 buf=0x772cd26140 offset=0
Arg 6: IS DEVICE PTR, val=0x105648700 buf=0x772cd26840 offset=0
Arg 7: IS DEVICE PTR, val=0x105648c00 buf=0x772cd26a00 offset=0
Arg 8: IS DEVICE PTR, val=0x105647400 buf=0x772cd26300 offset=0
Arg 9: IS DEVICE PTR, val=0x105647d00 buf=0x772cd264c0 offset=0
Arg 10: IS VALUE, size=4
Arg 11: IS VALUE, size=4
cuLaunchKernel: gridDimX=1 blockDimX=256 numArgs=12
GPU ainum = 256, inum = 256
Arg 0: IS DEVICE PTR, val=0x105644f00 buf=0x772cd25f80 offset=0
Arg 1: IS DEVICE PTR, val=0x105645000 buf=0x772cd25dc0 offset=0
Arg 2: IS DEVICE PTR, val=0x105648600 buf=0x772cd26680 offset=0
Arg 3: IS DEVICE PTR, val=0x105645900 buf=0x772cd25a40 offset=0
Arg 4: IS DEVICE PTR, val=0x105646200 buf=0x772cd25c00 offset=0
Arg 5: IS DEVICE PTR, val=0x105646b00 buf=0x772cd26140 offset=0
Arg 6: IS DEVICE PTR, val=0x105648700 buf=0x772cd26840 offset=0
Arg 7: IS DEVICE PTR, val=0x105648c00 buf=0x772cd26a00 offset=0
Arg 8: IS DEVICE PTR, val=0x105647400 buf=0x772cd26300 offset=0
Arg 9: IS DEVICE PTR, val=0x105647d00 buf=0x772cd264c0 offset=0
Arg 10: IS VALUE, size=4
Arg 11: IS VALUE, size=4
cuLaunchKernel: gridDimX=1 blockDimX=256 numArgs=12
GPU ainum = 256, inum = 256
Arg 0: IS DEVICE PTR, val=0x105644f00 buf=0x772cd25f80 offset=0
Arg 1: IS DEVICE PTR, val=0x105645000 buf=0x772cd25dc0 offset=0
Arg 2: IS DEVICE PTR, val=0x105648600 buf=0x772cd26680 offset=0
Arg 3: IS DEVICE PTR, val=0x105645900 buf=0x772cd25a40 offset=0
Arg 4: IS DEVICE PTR, val=0x105646200 buf=0x772cd25c00 offset=0
Arg 5: IS DEVICE PTR, val=0x105646b00 buf=0x772cd26140 offset=0
Arg 6: IS DEVICE PTR, val=0x105648700 buf=0x772cd26840 offset=0
Arg 7: IS DEVICE PTR, val=0x105648c00 buf=0x772cd26a00 offset=0
Arg 8: IS DEVICE PTR, val=0x105647400 buf=0x772cd26300 offset=0
Arg 9: IS DEVICE PTR, val=0x105647d00 buf=0x772cd264c0 offset=0
Arg 10: IS VALUE, size=4
Arg 11: IS VALUE, size=4
cuLaunchKernel: gridDimX=1 blockDimX=256 numArgs=12
GPU ainum = 256, inum = 256
Arg 0: IS DEVICE PTR, val=0x105644f00 buf=0x772cd25f80 offset=0
Arg 1: IS DEVICE PTR, val=0x105645000 buf=0x772cd25dc0 offset=0
Arg 2: IS DEVICE PTR, val=0x105648600 buf=0x772cd26680 offset=0
Arg 3: IS DEVICE PTR, val=0x105645900 buf=0x772cd25a40 offset=0
Arg 4: IS DEVICE PTR, val=0x105646200 buf=0x772cd25c00 offset=0
Arg 5: IS DEVICE PTR, val=0x105646b00 buf=0x772cd26140 offset=0
Arg 6: IS DEVICE PTR, val=0x105648700 buf=0x772cd26840 offset=0
Arg 7: IS DEVICE PTR, val=0x105648c00 buf=0x772cd26a00 offset=0
Arg 8: IS DEVICE PTR, val=0x105647400 buf=0x772cd26300 offset=0
Arg 9: IS DEVICE PTR, val=0x105647d00 buf=0x772cd264c0 offset=0
Arg 10: IS VALUE, size=4
Arg 11: IS VALUE, size=4
cuLaunchKernel: gridDimX=1 blockDimX=256 numArgs=12
GPU ainum = 256, inum = 256
Arg 0: IS DEVICE PTR, val=0x105644f00 buf=0x772cd25f80 offset=0
Arg 1: IS DEVICE PTR, val=0x105645000 buf=0x772cd25dc0 offset=0
Arg 2: IS DEVICE PTR, val=0x105648600 buf=0x772cd26680 offset=0
Arg 3: IS DEVICE PTR, val=0x105645900 buf=0x772cd25a40 offset=0
Arg 4: IS DEVICE PTR, val=0x105646200 buf=0x772cd25c00 offset=0
Arg 5: IS DEVICE PTR, val=0x105646b00 buf=0x772cd26140 offset=0
Arg 6: IS DEVICE PTR, val=0x105648700 buf=0x772cd26840 offset=0
Arg 7: IS DEVICE PTR, val=0x105648c00 buf=0x772cd26a00 offset=0
Arg 8: IS DEVICE PTR, val=0x105647400 buf=0x772cd26300 offset=0
Arg 9: IS DEVICE PTR, val=0x105647d00 buf=0x772cd264c0 offset=0
Arg 10: IS VALUE, size=4
Arg 11: IS VALUE, size=4
cuLaunchKernel: gridDimX=1 blockDimX=256 numArgs=12
GPU ainum = 256, inum = 256
Arg 0: IS DEVICE PTR, val=0x105644f00 buf=0x772cd25f80 offset=0
Arg 1: IS DEVICE PTR, val=0x105645000 buf=0x772cd25dc0 offset=0
Arg 2: IS DEVICE PTR, val=0x105648600 buf=0x772cd26680 offset=0
Arg 3: IS DEVICE PTR, val=0x105645900 buf=0x772cd25a40 offset=0
Arg 4: IS DEVICE PTR, val=0x105646200 buf=0x772cd25c00 offset=0
Arg 5: IS DEVICE PTR, val=0x105646b00 buf=0x772cd26140 offset=0
Arg 6: IS DEVICE PTR, val=0x105648700 buf=0x772cd26840 offset=0
Arg 7: IS DEVICE PTR, val=0x105648c00 buf=0x772cd26a00 offset=0
Arg 8: IS DEVICE PTR, val=0x105647400 buf=0x772cd26300 offset=0
Arg 9: IS DEVICE PTR, val=0x105647d00 buf=0x772cd264c0 offset=0
Arg 10: IS VALUE, size=4
Arg 11: IS VALUE, size=4
cuLaunchKernel: gridDimX=1 blockDimX=256 numArgs=12
GPU ainum = 256, inum = 256
Arg 0: IS DEVICE PTR, val=0x105644f00 buf=0x772cd25f80 offset=0
Arg 1: IS DEVICE PTR, val=0x105645000 buf=0x772cd25dc0 offset=0
Arg 2: IS DEVICE PTR, val=0x105648600 buf=0x772cd26680 offset=0
Arg 3: IS DEVICE PTR, val=0x105645900 buf=0x772cd25a40 offset=0
Arg 4: IS DEVICE PTR, val=0x105646200 buf=0x772cd25c00 offset=0
Arg 5: IS DEVICE PTR, val=0x105646b00 buf=0x772cd26140 offset=0
Arg 6: IS DEVICE PTR, val=0x105648700 buf=0x772cd26840 offset=0
Arg 7: IS DEVICE PTR, val=0x105648c00 buf=0x772cd26a00 offset=0
Arg 8: IS DEVICE PTR, val=0x105647400 buf=0x772cd26300 offset=0
Arg 9: IS DEVICE PTR, val=0x105647d00 buf=0x772cd264c0 offset=0
Arg 10: IS VALUE, size=4
Arg 11: IS VALUE, size=4
cuLaunchKernel: gridDimX=1 blockDimX=256 numArgs=12
GPU ainum = 256, inum = 256
Arg 0: IS DEVICE PTR, val=0x105644f00 buf=0x772cd25f80 offset=0
Arg 1: IS DEVICE PTR, val=0x105645000 buf=0x772cd25dc0 offset=0
Arg 2: IS DEVICE PTR, val=0x105648600 buf=0x772cd26680 offset=0
Arg 3: IS DEVICE PTR, val=0x105645900 buf=0x772cd25a40 offset=0
Arg 4: IS DEVICE PTR, val=0x105646200 buf=0x772cd25c00 offset=0
Arg 5: IS DEVICE PTR, val=0x105646b00 buf=0x772cd26140 offset=0
Arg 6: IS DEVICE PTR, val=0x105648700 buf=0x772cd26840 offset=0
Arg 7: IS DEVICE PTR, val=0x105648c00 buf=0x772cd26a00 offset=0
Arg 8: IS DEVICE PTR, val=0x105647400 buf=0x772cd26300 offset=0
Arg 9: IS DEVICE PTR, val=0x105647d00 buf=0x772cd264c0 offset=0
Arg 10: IS VALUE, size=4
Arg 11: IS VALUE, size=4
cuLaunchKernel: gridDimX=1 blockDimX=256 numArgs=12
GPU ainum = 256, inum = 256
Arg 0: IS DEVICE PTR, val=0x105644f00 buf=0x772cd25f80 offset=0
Arg 1: IS DEVICE PTR, val=0x105645000 buf=0x772cd25dc0 offset=0
Arg 2: IS DEVICE PTR, val=0x105648600 buf=0x772cd26680 offset=0
Arg 3: IS DEVICE PTR, val=0x105645900 buf=0x772cd25a40 offset=0
Arg 4: IS DEVICE PTR, val=0x105646200 buf=0x772cd25c00 offset=0
Arg 5: IS DEVICE PTR, val=0x105646b00 buf=0x772cd26140 offset=0
Arg 6: IS DEVICE PTR, val=0x105648700 buf=0x772cd26840 offset=0
Arg 7: IS DEVICE PTR, val=0x105648c00 buf=0x772cd26a00 offset=0
Arg 8: IS DEVICE PTR, val=0x105647400 buf=0x772cd26300 offset=0
Arg 9: IS DEVICE PTR, val=0x105647d00 buf=0x772cd264c0 offset=0
Arg 10: IS VALUE, size=4
Arg 11: IS VALUE, size=4
cuLaunchKernel: gridDimX=1 blockDimX=256 numArgs=12
GPU ainum = 256, inum = 256
Arg 0: IS DEVICE PTR, val=0x105644f00 buf=0x772cd25f80 offset=0
Arg 1: IS DEVICE PTR, val=0x105645000 buf=0x772cd25dc0 offset=0
Arg 2: IS DEVICE PTR, val=0x105648600 buf=0x772cd26680 offset=0
Arg 3: IS DEVICE PTR, val=0x105645900 buf=0x772cd25a40 offset=0
Arg 4: IS DEVICE PTR, val=0x105646200 buf=0x772cd25c00 offset=0
Arg 5: IS DEVICE PTR, val=0x105646b00 buf=0x772cd26140 offset=0
Arg 6: IS DEVICE PTR, val=0x105648700 buf=0x772cd26840 offset=0
Arg 7: IS DEVICE PTR, val=0x105648c00 buf=0x772cd26a00 offset=0
Arg 8: IS DEVICE PTR, val=0x105647400 buf=0x772cd26300 offset=0
Arg 9: IS DEVICE PTR, val=0x105647d00 buf=0x772cd264c0 offset=0
Arg 10: IS VALUE, size=4
Arg 11: IS VALUE, size=4
cuLaunchKernel: gridDimX=1 blockDimX=256 numArgs=12
GPU ainum = 256, inum = 256
Arg 0: IS DEVICE PTR, val=0x105644f00 buf=0x772cd25f80 offset=0
Arg 1: IS DEVICE PTR, val=0x105645000 buf=0x772cd25dc0 offset=0
Arg 2: IS DEVICE PTR, val=0x105648600 buf=0x772cd26680 offset=0
Arg 3: IS DEVICE PTR, val=0x105645900 buf=0x772cd25a40 offset=0
Arg 4: IS DEVICE PTR, val=0x105646200 buf=0x772cd25c00 offset=0
Arg 5: IS DEVICE PTR, val=0x105646b00 buf=0x772cd26140 offset=0
Arg 6: IS DEVICE PTR, val=0x105648700 buf=0x772cd26840 offset=0
Arg 7: IS DEVICE PTR, val=0x105648c00 buf=0x772cd26a00 offset=0
Arg 8: IS DEVICE PTR, val=0x105647400 buf=0x772cd26300 offset=0
Arg 9: IS DEVICE PTR, val=0x105647d00 buf=0x772cd264c0 offset=0
Arg 10: IS VALUE, size=4
Arg 11: IS VALUE, size=4
cuLaunchKernel: gridDimX=1 blockDimX=256 numArgs=12
GPU ainum = 256, inum = 256
Arg 0: IS DEVICE PTR, val=0x105644f00 buf=0x772cd25f80 offset=0
Arg 1: IS DEVICE PTR, val=0x105645000 buf=0x772cd25dc0 offset=0
Arg 2: IS DEVICE PTR, val=0x105648600 buf=0x772cd26680 offset=0
Arg 3: IS DEVICE PTR, val=0x105645900 buf=0x772cd25a40 offset=0
Arg 4: IS DEVICE PTR, val=0x105646200 buf=0x772cd25c00 offset=0
Arg 5: IS DEVICE PTR, val=0x105646b00 buf=0x772cd26140 offset=0
Arg 6: IS DEVICE PTR, val=0x105648700 buf=0x772cd26840 offset=0
Arg 7: IS DEVICE PTR, val=0x105648c00 buf=0x772cd26a00 offset=0
Arg 8: IS DEVICE PTR, val=0x105647400 buf=0x772cd26300 offset=0
Arg 9: IS DEVICE PTR, val=0x105647d00 buf=0x772cd264c0 offset=0
Arg 10: IS VALUE, size=4
Arg 11: IS VALUE, size=4
cuLaunchKernel: gridDimX=1 blockDimX=256 numArgs=12
GPU ainum = 256, inum = 256
Arg 0: IS DEVICE PTR, val=0x105644f00 buf=0x772cd25f80 offset=0
Arg 1: IS DEVICE PTR, val=0x105645000 buf=0x772cd25dc0 offset=0
Arg 2: IS DEVICE PTR, val=0x105648600 buf=0x772cd26680 offset=0
Arg 3: IS DEVICE PTR, val=0x105645900 buf=0x772cd25a40 offset=0
Arg 4: IS DEVICE PTR, val=0x105646200 buf=0x772cd25c00 offset=0
Arg 5: IS DEVICE PTR, val=0x105646b00 buf=0x772cd26140 offset=0
Arg 6: IS DEVICE PTR, val=0x105648700 buf=0x772cd26840 offset=0
Arg 7: IS DEVICE PTR, val=0x105648c00 buf=0x772cd26a00 offset=0
Arg 8: IS DEVICE PTR, val=0x105647400 buf=0x772cd26300 offset=0
Arg 9: IS DEVICE PTR, val=0x105647d00 buf=0x772cd264c0 offset=0
Arg 10: IS VALUE, size=4
Arg 11: IS VALUE, size=4
cuLaunchKernel: gridDimX=1 blockDimX=256 numArgs=12
GPU ainum = 256, inum = 256
Per MPI rank memory allocation (min/avg/max) = 14.76 | 14.76 | 14.76 Mbytes
   Step          Temp          E_pair         TotEng         Press           v_eb           v_ea          v_elp          v_emol          v_ev          v_epen         v_ecoa         v_ehb           v_et          v_eco           v_ew           v_ep          v_efi          v_eqeq         v_nqeq    
         0   500            0              29.808101      620.20762      0              0              0              0              0              0              0              0              0              0              0              0              0              0              14           
Arg 0: IS DEVICE PTR, val=0x105644f00 buf=0x772cd25f80 offset=0
Arg 1: IS DEVICE PTR, val=0x105645000 buf=0x772cd25dc0 offset=0
Arg 2: IS DEVICE PTR, val=0x105648600 buf=0x772cd26680 offset=0
Arg 3: IS DEVICE PTR, val=0x105645900 buf=0x772cd25a40 offset=0
Arg 4: IS DEVICE PTR, val=0x105646200 buf=0x772cd25c00 offset=0
Arg 5: IS DEVICE PTR, val=0x105646b00 buf=0x772cd26140 offset=0
Arg 6: IS DEVICE PTR, val=0x105648700 buf=0x772cd26840 offset=0
Arg 7: IS DEVICE PTR, val=0x105648c00 buf=0x772cd26a00 offset=0
Arg 8: IS DEVICE PTR, val=0x105647400 buf=0x772cd26300 offset=0
Arg 9: IS DEVICE PTR, val=0x105647d00 buf=0x772cd264c0 offset=0
Arg 10: IS VALUE, size=4
Arg 11: IS VALUE, size=4
cuLaunchKernel: gridDimX=1 blockDimX=256 numArgs=12
GPU ainum = 256, inum = 256
Arg 0: IS DEVICE PTR, val=0x105644f00 buf=0x772cd25f80 offset=0
Arg 1: IS DEVICE PTR, val=0x105645000 buf=0x772cd25dc0 offset=0
Arg 2: IS DEVICE PTR, val=0x105648600 buf=0x772cd26680 offset=0
Arg 3: IS DEVICE PTR, val=0x105645900 buf=0x772cd25a40 offset=0
Arg 4: IS DEVICE PTR, val=0x105646200 buf=0x772cd25c00 offset=0
Arg 5: IS DEVICE PTR, val=0x105646b00 buf=0x772cd26140 offset=0
Arg 6: IS DEVICE PTR, val=0x105648700 buf=0x772cd26840 offset=0
Arg 7: IS DEVICE PTR, val=0x105648c00 buf=0x772cd26a00 offset=0
Arg 8: IS DEVICE PTR, val=0x105647400 buf=0x772cd26300 offset=0
Arg 9: IS DEVICE PTR, val=0x105647d00 buf=0x772cd264c0 offset=0
Arg 10: IS VALUE, size=4
Arg 11: IS VALUE, size=4
cuLaunchKernel: gridDimX=1 blockDimX=256 numArgs=12
GPU ainum = 256, inum = 256
Arg 0: IS DEVICE PTR, val=0x105644f00 buf=0x772cd25f80 offset=0
Arg 1: IS DEVICE PTR, val=0x105645000 buf=0x772cd25dc0 offset=0
Arg 2: IS DEVICE PTR, val=0x105648600 buf=0x772cd26680 offset=0
Arg 3: IS DEVICE PTR, val=0x105645900 buf=0x772cd25a40 offset=0
Arg 4: IS DEVICE PTR, val=0x105646200 buf=0x772cd25c00 offset=0
Arg 5: IS DEVICE PTR, val=0x105646b00 buf=0x772cd26140 offset=0
Arg 6: IS DEVICE PTR, val=0x105648700 buf=0x772cd26840 offset=0
Arg 7: IS DEVICE PTR, val=0x105648c00 buf=0x772cd26a00 offset=0
Arg 8: IS DEVICE PTR, val=0x105647400 buf=0x772cd26300 offset=0
Arg 9: IS DEVICE PTR, val=0x105647d00 buf=0x772cd264c0 offset=0
Arg 10: IS VALUE, size=4
Arg 11: IS VALUE, size=4
cuLaunchKernel: gridDimX=1 blockDimX=256 numArgs=12
GPU ainum = 256, inum = 256
Arg 0: IS DEVICE PTR, val=0x105644f00 buf=0x772cd25f80 offset=0
Arg 1: IS DEVICE PTR, val=0x105645000 buf=0x772cd25dc0 offset=0
Arg 2: IS DEVICE PTR, val=0x105648600 buf=0x772cd26680 offset=0
Arg 3: IS DEVICE PTR, val=0x105645900 buf=0x772cd25a40 offset=0
Arg 4: IS DEVICE PTR, val=0x105646200 buf=0x772cd25c00 offset=0
Arg 5: IS DEVICE PTR, val=0x105646b00 buf=0x772cd26140 offset=0
Arg 6: IS DEVICE PTR, val=0x105648700 buf=0x772cd26840 offset=0
Arg 7: IS DEVICE PTR, val=0x105648c00 buf=0x772cd26a00 offset=0
Arg 8: IS DEVICE PTR, val=0x105647400 buf=0x772cd26300 offset=0
Arg 9: IS DEVICE PTR, val=0x105647d00 buf=0x772cd264c0 offset=0
Arg 10: IS VALUE, size=4
Arg 11: IS VALUE, size=4
cuLaunchKernel: gridDimX=1 blockDimX=256 numArgs=12
GPU ainum = 256, inum = 256
Arg 0: IS DEVICE PTR, val=0x105644f00 buf=0x772cd25f80 offset=0
Arg 1: IS DEVICE PTR, val=0x105645000 buf=0x772cd25dc0 offset=0
Arg 2: IS DEVICE PTR, val=0x105648600 buf=0x772cd26680 offset=0
Arg 3: IS DEVICE PTR, val=0x105645900 buf=0x772cd25a40 offset=0
Arg 4: IS DEVICE PTR, val=0x105646200 buf=0x772cd25c00 offset=0
Arg 5: IS DEVICE PTR, val=0x105646b00 buf=0x772cd26140 offset=0
Arg 6: IS DEVICE PTR, val=0x105648700 buf=0x772cd26840 offset=0
Arg 7: IS DEVICE PTR, val=0x105648c00 buf=0x772cd26a00 offset=0
Arg 8: IS DEVICE PTR, val=0x105647400 buf=0x772cd26300 offset=0
Arg 9: IS DEVICE PTR, val=0x105647d00 buf=0x772cd264c0 offset=0
Arg 10: IS VALUE, size=4
Arg 11: IS VALUE, size=4
cuLaunchKernel: gridDimX=1 blockDimX=256 numArgs=12
GPU ainum = 256, inum = 256
Arg 0: IS DEVICE PTR, val=0x105644f00 buf=0x772cd25f80 offset=0
Arg 1: IS DEVICE PTR, val=0x105645000 buf=0x772cd25dc0 offset=0
Arg 2: IS DEVICE PTR, val=0x105648600 buf=0x772cd26680 offset=0
Arg 3: IS DEVICE PTR, val=0x105645900 buf=0x772cd25a40 offset=0
Arg 4: IS DEVICE PTR, val=0x105646200 buf=0x772cd25c00 offset=0
Arg 5: IS DEVICE PTR, val=0x105646b00 buf=0x772cd26140 offset=0
Arg 6: IS DEVICE PTR, val=0x105648700 buf=0x772cd26840 offset=0
Arg 7: IS DEVICE PTR, val=0x105648c00 buf=0x772cd26a00 offset=0
Arg 8: IS DEVICE PTR, val=0x105647400 buf=0x772cd26300 offset=0
Arg 9: IS DEVICE PTR, val=0x105647d00 buf=0x772cd264c0 offset=0
Arg 10: IS VALUE, size=4
Arg 11: IS VALUE, size=4
cuLaunchKernel: gridDimX=1 blockDimX=256 numArgs=12
GPU ainum = 256, inum = 256
Arg 0: IS DEVICE PTR, val=0x105644f00 buf=0x772cd25f80 offset=0
Arg 1: IS DEVICE PTR, val=0x105645000 buf=0x772cd25dc0 offset=0
Arg 2: IS DEVICE PTR, val=0x105648600 buf=0x772cd26680 offset=0
Arg 3: IS DEVICE PTR, val=0x105645900 buf=0x772cd25a40 offset=0
Arg 4: IS DEVICE PTR, val=0x105646200 buf=0x772cd25c00 offset=0
Arg 5: IS DEVICE PTR, val=0x105646b00 buf=0x772cd26140 offset=0
Arg 6: IS DEVICE PTR, val=0x105648700 buf=0x772cd26840 offset=0
Arg 7: IS DEVICE PTR, val=0x105648c00 buf=0x772cd26a00 offset=0
Arg 8: IS DEVICE PTR, val=0x105647400 buf=0x772cd26300 offset=0
Arg 9: IS DEVICE PTR, val=0x105647d00 buf=0x772cd264c0 offset=0
Arg 10: IS VALUE, size=4
Arg 11: IS VALUE, size=4
cuLaunchKernel: gridDimX=1 blockDimX=256 numArgs=12
GPU ainum = 256, inum = 256
Arg 0: IS DEVICE PTR, val=0x105644f00 buf=0x772cd25f80 offset=0
Arg 1: IS DEVICE PTR, val=0x105645000 buf=0x772cd25dc0 offset=0
Arg 2: IS DEVICE PTR, val=0x105648600 buf=0x772cd26680 offset=0
Arg 3: IS DEVICE PTR, val=0x105645900 buf=0x772cd25a40 offset=0
Arg 4: IS DEVICE PTR, val=0x105646200 buf=0x772cd25c00 offset=0
Arg 5: IS DEVICE PTR, val=0x105646b00 buf=0x772cd26140 offset=0
Arg 6: IS DEVICE PTR, val=0x105648700 buf=0x772cd26840 offset=0
Arg 7: IS DEVICE PTR, val=0x105648c00 buf=0x772cd26a00 offset=0
Arg 8: IS DEVICE PTR, val=0x105647400 buf=0x772cd26300 offset=0
Arg 9: IS DEVICE PTR, val=0x105647d00 buf=0x772cd264c0 offset=0
Arg 10: IS VALUE, size=4
Arg 11: IS VALUE, size=4
cuLaunchKernel: gridDimX=1 blockDimX=256 numArgs=12
GPU ainum = 256, inum = 256
Arg 0: IS DEVICE PTR, val=0x105644f00 buf=0x772cd25f80 offset=0
Arg 1: IS DEVICE PTR, val=0x105645000 buf=0x772cd25dc0 offset=0
Arg 2: IS DEVICE PTR, val=0x105648600 buf=0x772cd26680 offset=0
Arg 3: IS DEVICE PTR, val=0x105645900 buf=0x772cd25a40 offset=0
Arg 4: IS DEVICE PTR, val=0x105646200 buf=0x772cd25c00 offset=0
Arg 5: IS DEVICE PTR, val=0x105646b00 buf=0x772cd26140 offset=0
Arg 6: IS DEVICE PTR, val=0x105648700 buf=0x772cd26840 offset=0
Arg 7: IS DEVICE PTR, val=0x105648c00 buf=0x772cd26a00 offset=0
Arg 8: IS DEVICE PTR, val=0x105647400 buf=0x772cd26300 offset=0
Arg 9: IS DEVICE PTR, val=0x105647d00 buf=0x772cd264c0 offset=0
Arg 10: IS VALUE, size=4
Arg 11: IS VALUE, size=4
cuLaunchKernel: gridDimX=1 blockDimX=256 numArgs=12
GPU ainum = 256, inum = 256
Arg 0: IS DEVICE PTR, val=0x105644f00 buf=0x772cd25f80 offset=0
Arg 1: IS DEVICE PTR, val=0x105645000 buf=0x772cd25dc0 offset=0
Arg 2: IS DEVICE PTR, val=0x105648600 buf=0x772cd26680 offset=0
Arg 3: IS DEVICE PTR, val=0x105645900 buf=0x772cd25a40 offset=0
Arg 4: IS DEVICE PTR, val=0x105646200 buf=0x772cd25c00 offset=0
Arg 5: IS DEVICE PTR, val=0x105646b00 buf=0x772cd26140 offset=0
Arg 6: IS DEVICE PTR, val=0x105648700 buf=0x772cd26840 offset=0
Arg 7: IS DEVICE PTR, val=0x105648c00 buf=0x772cd26a00 offset=0
Arg 8: IS DEVICE PTR, val=0x105647400 buf=0x772cd26300 offset=0
Arg 9: IS DEVICE PTR, val=0x105647d00 buf=0x772cd264c0 offset=0
Arg 10: IS VALUE, size=4
Arg 11: IS VALUE, size=4
cuLaunchKernel: gridDimX=1 blockDimX=256 numArgs=12
GPU ainum = 256, inum = 256
Arg 0: IS DEVICE PTR, val=0x105644f00 buf=0x772cd25f80 offset=0
Arg 1: IS DEVICE PTR, val=0x105645000 buf=0x772cd25dc0 offset=0
Arg 2: IS DEVICE PTR, val=0x105648600 buf=0x772cd26680 offset=0
Arg 3: IS DEVICE PTR, val=0x105645900 buf=0x772cd25a40 offset=0
Arg 4: IS DEVICE PTR, val=0x105646200 buf=0x772cd25c00 offset=0
Arg 5: IS DEVICE PTR, val=0x105646b00 buf=0x772cd26140 offset=0
Arg 6: IS DEVICE PTR, val=0x105648700 buf=0x772cd26840 offset=0
Arg 7: IS DEVICE PTR, val=0x105648c00 buf=0x772cd26a00 offset=0
Arg 8: IS DEVICE PTR, val=0x105647400 buf=0x772cd26300 offset=0
Arg 9: IS DEVICE PTR, val=0x105647d00 buf=0x772cd264c0 offset=0
Arg 10: IS VALUE, size=4
Arg 11: IS VALUE, size=4
cuLaunchKernel: gridDimX=1 blockDimX=256 numArgs=12
GPU ainum = 256, inum = 256
Arg 0: IS DEVICE PTR, val=0x105644f00 buf=0x772cd25f80 offset=0
Arg 1: IS DEVICE PTR, val=0x105645000 buf=0x772cd25dc0 offset=0
Arg 2: IS DEVICE PTR, val=0x105648600 buf=0x772cd26680 offset=0
Arg 3: IS DEVICE PTR, val=0x105645900 buf=0x772cd25a40 offset=0
Arg 4: IS DEVICE PTR, val=0x105646200 buf=0x772cd25c00 offset=0
Arg 5: IS DEVICE PTR, val=0x105646b00 buf=0x772cd26140 offset=0
Arg 6: IS DEVICE PTR, val=0x105648700 buf=0x772cd26840 offset=0
Arg 7: IS DEVICE PTR, val=0x105648c00 buf=0x772cd26a00 offset=0
Arg 8: IS DEVICE PTR, val=0x105647400 buf=0x772cd26300 offset=0
Arg 9: IS DEVICE PTR, val=0x105647d00 buf=0x772cd264c0 offset=0
Arg 10: IS VALUE, size=4
Arg 11: IS VALUE, size=4
cuLaunchKernel: gridDimX=1 blockDimX=256 numArgs=12
GPU ainum = 256, inum = 256
Arg 0: IS DEVICE PTR, val=0x105644f00 buf=0x772cd25f80 offset=0
Arg 1: IS DEVICE PTR, val=0x105645000 buf=0x772cd25dc0 offset=0
Arg 2: IS DEVICE PTR, val=0x105648600 buf=0x772cd26680 offset=0
Arg 3: IS DEVICE PTR, val=0x105645900 buf=0x772cd25a40 offset=0
Arg 4: IS DEVICE PTR, val=0x105646200 buf=0x772cd25c00 offset=0
Arg 5: IS DEVICE PTR, val=0x105646b00 buf=0x772cd26140 offset=0
Arg 6: IS DEVICE PTR, val=0x105648700 buf=0x772cd26840 offset=0
Arg 7: IS DEVICE PTR, val=0x105648c00 buf=0x772cd26a00 offset=0
Arg 8: IS DEVICE PTR, val=0x105647400 buf=0x772cd26300 offset=0
Arg 9: IS DEVICE PTR, val=0x105647d00 buf=0x772cd264c0 offset=0
Arg 10: IS VALUE, size=4
Arg 11: IS VALUE, size=4
cuLaunchKernel: gridDimX=1 blockDimX=256 numArgs=12
GPU ainum = 256, inum = 256
Arg 0: IS DEVICE PTR, val=0x105644f00 buf=0x772cd25f80 offset=0
Arg 1: IS DEVICE PTR, val=0x105645000 buf=0x772cd25dc0 offset=0
Arg 2: IS DEVICE PTR, val=0x105648600 buf=0x772cd26680 offset=0
Arg 3: IS DEVICE PTR, val=0x105645900 buf=0x772cd25a40 offset=0
Arg 4: IS DEVICE PTR, val=0x105646200 buf=0x772cd25c00 offset=0
Arg 5: IS DEVICE PTR, val=0x105646b00 buf=0x772cd26140 offset=0
Arg 6: IS DEVICE PTR, val=0x105648700 buf=0x772cd26840 offset=0
Arg 7: IS DEVICE PTR, val=0x105648c00 buf=0x772cd26a00 offset=0
Arg 8: IS DEVICE PTR, val=0x105647400 buf=0x772cd26300 offset=0
Arg 9: IS DEVICE PTR, val=0x105647d00 buf=0x772cd264c0 offset=0
Arg 10: IS VALUE, size=4
Arg 11: IS VALUE, size=4
cuLaunchKernel: gridDimX=1 blockDimX=256 numArgs=12
GPU ainum = 256, inum = 256
Arg 0: IS DEVICE PTR, val=0x105644f00 buf=0x772cd25f80 offset=0
Arg 1: IS DEVICE PTR, val=0x105645000 buf=0x772cd25dc0 offset=0
Arg 2: IS DEVICE PTR, val=0x105648600 buf=0x772cd26680 offset=0
Arg 3: IS DEVICE PTR, val=0x105645900 buf=0x772cd25a40 offset=0
Arg 4: IS DEVICE PTR, val=0x105646200 buf=0x772cd25c00 offset=0
Arg 5: IS DEVICE PTR, val=0x105646b00 buf=0x772cd26140 offset=0
Arg 6: IS DEVICE PTR, val=0x105648700 buf=0x772cd26840 offset=0
Arg 7: IS DEVICE PTR, val=0x105648c00 buf=0x772cd26a00 offset=0
Arg 8: IS DEVICE PTR, val=0x105647400 buf=0x772cd26300 offset=0
Arg 9: IS DEVICE PTR, val=0x105647d00 buf=0x772cd264c0 offset=0
Arg 10: IS VALUE, size=4
Arg 11: IS VALUE, size=4
cuLaunchKernel: gridDimX=1 blockDimX=256 numArgs=12
GPU ainum = 256, inum = 256
Arg 0: IS DEVICE PTR, val=0x105644f00 buf=0x772cd25f80 offset=0
Arg 1: IS DEVICE PTR, val=0x105645000 buf=0x772cd25dc0 offset=0
Arg 2: IS DEVICE PTR, val=0x105648600 buf=0x772cd26680 offset=0
Arg 3: IS DEVICE PTR, val=0x105645900 buf=0x772cd25a40 offset=0
Arg 4: IS DEVICE PTR, val=0x105646200 buf=0x772cd25c00 offset=0
Arg 5: IS DEVICE PTR, val=0x105646b00 buf=0x772cd26140 offset=0
Arg 6: IS DEVICE PTR, val=0x105648700 buf=0x772cd26840 offset=0
Arg 7: IS DEVICE PTR, val=0x105648c00 buf=0x772cd26a00 offset=0
Arg 8: IS DEVICE PTR, val=0x105647400 buf=0x772cd26300 offset=0
Arg 9: IS DEVICE PTR, val=0x105647d00 buf=0x772cd264c0 offset=0
Arg 10: IS VALUE, size=4
Arg 11: IS VALUE, size=4
cuLaunchKernel: gridDimX=1 blockDimX=256 numArgs=12
GPU ainum = 256, inum = 256
Arg 0: IS DEVICE PTR, val=0x105644f00 buf=0x772cd25f80 offset=0
Arg 1: IS DEVICE PTR, val=0x105645000 buf=0x772cd25dc0 offset=0
Arg 2: IS DEVICE PTR, val=0x105648600 buf=0x772cd26680 offset=0
Arg 3: IS DEVICE PTR, val=0x105645900 buf=0x772cd25a40 offset=0
Arg 4: IS DEVICE PTR, val=0x105646200 buf=0x772cd25c00 offset=0
Arg 5: IS DEVICE PTR, val=0x105646b00 buf=0x772cd26140 offset=0
Arg 6: IS DEVICE PTR, val=0x105648700 buf=0x772cd26840 offset=0
Arg 7: IS DEVICE PTR, val=0x105648c00 buf=0x772cd26a00 offset=0
Arg 8: IS DEVICE PTR, val=0x105647400 buf=0x772cd26300 offset=0
Arg 9: IS DEVICE PTR, val=0x105647d00 buf=0x772cd264c0 offset=0
Arg 10: IS VALUE, size=4
Arg 11: IS VALUE, size=4
cuLaunchKernel: gridDimX=1 blockDimX=256 numArgs=12
GPU ainum = 256, inum = 256
Arg 0: IS DEVICE PTR, val=0x105644f00 buf=0x772cd25f80 offset=0
Arg 1: IS DEVICE PTR, val=0x105645000 buf=0x772cd25dc0 offset=0
Arg 2: IS DEVICE PTR, val=0x105648600 buf=0x772cd26680 offset=0
Arg 3: IS DEVICE PTR, val=0x105645900 buf=0x772cd25a40 offset=0
Arg 4: IS DEVICE PTR, val=0x105646200 buf=0x772cd25c00 offset=0
Arg 5: IS DEVICE PTR, val=0x105646b00 buf=0x772cd26140 offset=0
Arg 6: IS DEVICE PTR, val=0x105648700 buf=0x772cd26840 offset=0
Arg 7: IS DEVICE PTR, val=0x105648c00 buf=0x772cd26a00 offset=0
Arg 8: IS DEVICE PTR, val=0x105647400 buf=0x772cd26300 offset=0
Arg 9: IS DEVICE PTR, val=0x105647d00 buf=0x772cd264c0 offset=0
Arg 10: IS VALUE, size=4
Arg 11: IS VALUE, size=4
cuLaunchKernel: gridDimX=1 blockDimX=256 numArgs=12
GPU ainum = 256, inum = 256
Arg 0: IS DEVICE PTR, val=0x105644f00 buf=0x772cd25f80 offset=0
Arg 1: IS DEVICE PTR, val=0x105645000 buf=0x772cd25dc0 offset=0
Arg 2: IS DEVICE PTR, val=0x105648600 buf=0x772cd26680 offset=0
Arg 3: IS DEVICE PTR, val=0x105645900 buf=0x772cd25a40 offset=0
Arg 4: IS DEVICE PTR, val=0x105646200 buf=0x772cd25c00 offset=0
Arg 5: IS DEVICE PTR, val=0x105646b00 buf=0x772cd26140 offset=0
Arg 6: IS DEVICE PTR, val=0x105648700 buf=0x772cd26840 offset=0
Arg 7: IS DEVICE PTR, val=0x105648c00 buf=0x772cd26a00 offset=0
Arg 8: IS DEVICE PTR, val=0x105647400 buf=0x772cd26300 offset=0
Arg 9: IS DEVICE PTR, val=0x105647d00 buf=0x772cd264c0 offset=0
Arg 10: IS VALUE, size=4
Arg 11: IS VALUE, size=4
cuLaunchKernel: gridDimX=1 blockDimX=256 numArgs=12
GPU ainum = 256, inum = 256
Arg 0: IS DEVICE PTR, val=0x105644f00 buf=0x772cd25f80 offset=0
Arg 1: IS DEVICE PTR, val=0x105645000 buf=0x772cd25dc0 offset=0
Arg 2: IS DEVICE PTR, val=0x105648600 buf=0x772cd26680 offset=0
Arg 3: IS DEVICE PTR, val=0x105645900 buf=0x772cd25a40 offset=0
Arg 4: IS DEVICE PTR, val=0x105646200 buf=0x772cd25c00 offset=0
Arg 5: IS DEVICE PTR, val=0x105646b00 buf=0x772cd26140 offset=0
Arg 6: IS DEVICE PTR, val=0x105648700 buf=0x772cd26840 offset=0
Arg 7: IS DEVICE PTR, val=0x105648c00 buf=0x772cd26a00 offset=0
Arg 8: IS DEVICE PTR, val=0x105647400 buf=0x772cd26300 offset=0
Arg 9: IS DEVICE PTR, val=0x105647d00 buf=0x772cd264c0 offset=0
Arg 10: IS VALUE, size=4
Arg 11: IS VALUE, size=4
cuLaunchKernel: gridDimX=1 blockDimX=256 numArgs=12
GPU ainum = 256, inum = 256
Arg 0: IS DEVICE PTR, val=0x105644f00 buf=0x772cd25f80 offset=0
Arg 1: IS DEVICE PTR, val=0x105645000 buf=0x772cd25dc0 offset=0
Arg 2: IS DEVICE PTR, val=0x105648600 buf=0x772cd26680 offset=0
Arg 3: IS DEVICE PTR, val=0x105645900 buf=0x772cd25a40 offset=0
Arg 4: IS DEVICE PTR, val=0x105646200 buf=0x772cd25c00 offset=0
Arg 5: IS DEVICE PTR, val=0x105646b00 buf=0x772cd26140 offset=0
Arg 6: IS DEVICE PTR, val=0x105648700 buf=0x772cd26840 offset=0
Arg 7: IS DEVICE PTR, val=0x105648c00 buf=0x772cd26a00 offset=0
Arg 8: IS DEVICE PTR, val=0x105647400 buf=0x772cd26300 offset=0
Arg 9: IS DEVICE PTR, val=0x105647d00 buf=0x772cd264c0 offset=0
Arg 10: IS VALUE, size=4
Arg 11: IS VALUE, size=4
cuLaunchKernel: gridDimX=1 blockDimX=256 numArgs=12
GPU ainum = 256, inum = 256
Arg 0: IS DEVICE PTR, val=0x105644f00 buf=0x772cd25f80 offset=0
Arg 1: IS DEVICE PTR, val=0x105645000 buf=0x772cd25dc0 offset=0
Arg 2: IS DEVICE PTR, val=0x105648600 buf=0x772cd26680 offset=0
Arg 3: IS DEVICE PTR, val=0x105645900 buf=0x772cd25a40 offset=0
Arg 4: IS DEVICE PTR, val=0x105646200 buf=0x772cd25c00 offset=0
Arg 5: IS DEVICE PTR, val=0x105646b00 buf=0x772cd26140 offset=0
Arg 6: IS DEVICE PTR, val=0x105648700 buf=0x772cd26840 offset=0
Arg 7: IS DEVICE PTR, val=0x105648c00 buf=0x772cd26a00 offset=0
Arg 8: IS DEVICE PTR, val=0x105647400 buf=0x772cd26300 offset=0
Arg 9: IS DEVICE PTR, val=0x105647d00 buf=0x772cd264c0 offset=0
Arg 10: IS VALUE, size=4
Arg 11: IS VALUE, size=4
cuLaunchKernel: gridDimX=1 blockDimX=256 numArgs=12
GPU ainum = 256, inum = 256
Arg 0: IS DEVICE PTR, val=0x105644f00 buf=0x772cd25f80 offset=0
Arg 1: IS DEVICE PTR, val=0x105645000 buf=0x772cd25dc0 offset=0
Arg 2: IS DEVICE PTR, val=0x105648600 buf=0x772cd26680 offset=0
Arg 3: IS DEVICE PTR, val=0x105645900 buf=0x772cd25a40 offset=0
Arg 4: IS DEVICE PTR, val=0x105646200 buf=0x772cd25c00 offset=0
Arg 5: IS DEVICE PTR, val=0x105646b00 buf=0x772cd26140 offset=0
Arg 6: IS DEVICE PTR, val=0x105648700 buf=0x772cd26840 offset=0
Arg 7: IS DEVICE PTR, val=0x105648c00 buf=0x772cd26a00 offset=0
Arg 8: IS DEVICE PTR, val=0x105647400 buf=0x772cd26300 offset=0
Arg 9: IS DEVICE PTR, val=0x105647d00 buf=0x772cd264c0 offset=0
Arg 10: IS VALUE, size=4
Arg 11: IS VALUE, size=4
cuLaunchKernel: gridDimX=1 blockDimX=256 numArgs=12
GPU ainum = 256, inum = 256
Arg 0: IS DEVICE PTR, val=0x105644f00 buf=0x772cd25f80 offset=0
Arg 1: IS DEVICE PTR, val=0x105645000 buf=0x772cd25dc0 offset=0
Arg 2: IS DEVICE PTR, val=0x105648600 buf=0x772cd26680 offset=0
Arg 3: IS DEVICE PTR, val=0x105645900 buf=0x772cd25a40 offset=0
Arg 4: IS DEVICE PTR, val=0x105646200 buf=0x772cd25c00 offset=0
Arg 5: IS DEVICE PTR, val=0x105646b00 buf=0x772cd26140 offset=0
Arg 6: IS DEVICE PTR, val=0x105648700 buf=0x772cd26840 offset=0
Arg 7: IS DEVICE PTR, val=0x105648c00 buf=0x772cd26a00 offset=0
Arg 8: IS DEVICE PTR, val=0x105647400 buf=0x772cd26300 offset=0
Arg 9: IS DEVICE PTR, val=0x105647d00 buf=0x772cd264c0 offset=0
Arg 10: IS VALUE, size=4
Arg 11: IS VALUE, size=4
cuLaunchKernel: gridDimX=1 blockDimX=256 numArgs=12
GPU ainum = 256, inum = 256
Arg 0: IS DEVICE PTR, val=0x105644f00 buf=0x772cd25f80 offset=0
Arg 1: IS DEVICE PTR, val=0x105645000 buf=0x772cd25dc0 offset=0
Arg 2: IS DEVICE PTR, val=0x105648600 buf=0x772cd26680 offset=0
Arg 3: IS DEVICE PTR, val=0x105645900 buf=0x772cd25a40 offset=0
Arg 4: IS DEVICE PTR, val=0x105646200 buf=0x772cd25c00 offset=0
Arg 5: IS DEVICE PTR, val=0x105646b00 buf=0x772cd26140 offset=0
Arg 6: IS DEVICE PTR, val=0x105648700 buf=0x772cd26840 offset=0
Arg 7: IS DEVICE PTR, val=0x105648c00 buf=0x772cd26a00 offset=0
Arg 8: IS DEVICE PTR, val=0x105647400 buf=0x772cd26300 offset=0
Arg 9: IS DEVICE PTR, val=0x105647d00 buf=0x772cd264c0 offset=0
Arg 10: IS VALUE, size=4
Arg 11: IS VALUE, size=4
cuLaunchKernel: gridDimX=1 blockDimX=256 numArgs=12
GPU ainum = 256, inum = 256
Arg 0: IS DEVICE PTR, val=0x105644f00 buf=0x772cd25f80 offset=0
Arg 1: IS DEVICE PTR, val=0x105645000 buf=0x772cd25dc0 offset=0
Arg 2: IS DEVICE PTR, val=0x105648600 buf=0x772cd26680 offset=0
Arg 3: IS DEVICE PTR, val=0x105645900 buf=0x772cd25a40 offset=0
Arg 4: IS DEVICE PTR, val=0x105646200 buf=0x772cd25c00 offset=0
Arg 5: IS DEVICE PTR, val=0x105646b00 buf=0x772cd26140 offset=0
Arg 6: IS DEVICE PTR, val=0x105648700 buf=0x772cd26840 offset=0
Arg 7: IS DEVICE PTR, val=0x105648c00 buf=0x772cd26a00 offset=0
Arg 8: IS DEVICE PTR, val=0x105647400 buf=0x772cd26300 offset=0
Arg 9: IS DEVICE PTR, val=0x105647d00 buf=0x772cd264c0 offset=0
Arg 10: IS VALUE, size=4
Arg 11: IS VALUE, size=4
cuLaunchKernel: gridDimX=1 blockDimX=256 numArgs=12
GPU ainum = 256, inum = 256
Arg 0: IS DEVICE PTR, val=0x105644f00 buf=0x772cd25f80 offset=0
Arg 1: IS DEVICE PTR, val=0x105645000 buf=0x772cd25dc0 offset=0
Arg 2: IS DEVICE PTR, val=0x105648600 buf=0x772cd26680 offset=0
Arg 3: IS DEVICE PTR, val=0x105645900 buf=0x772cd25a40 offset=0
Arg 4: IS DEVICE PTR, val=0x105646200 buf=0x772cd25c00 offset=0
Arg 5: IS DEVICE PTR, val=0x105646b00 buf=0x772cd26140 offset=0
Arg 6: IS DEVICE PTR, val=0x105648700 buf=0x772cd26840 offset=0
Arg 7: IS DEVICE PTR, val=0x105648c00 buf=0x772cd26a00 offset=0
Arg 8: IS DEVICE PTR, val=0x105647400 buf=0x772cd26300 offset=0
Arg 9: IS DEVICE PTR, val=0x105647d00 buf=0x772cd264c0 offset=0
Arg 10: IS VALUE, size=4
Arg 11: IS VALUE, size=4
cuLaunchKernel: gridDimX=1 blockDimX=256 numArgs=12
GPU ainum = 256, inum = 256
Arg 0: IS DEVICE PTR, val=0x105644f00 buf=0x772cd25f80 offset=0
Arg 1: IS DEVICE PTR, val=0x105645000 buf=0x772cd25dc0 offset=0
Arg 2: IS DEVICE PTR, val=0x105648600 buf=0x772cd26680 offset=0
Arg 3: IS DEVICE PTR, val=0x105645900 buf=0x772cd25a40 offset=0
Arg 4: IS DEVICE PTR, val=0x105646200 buf=0x772cd25c00 offset=0
Arg 5: IS DEVICE PTR, val=0x105646b00 buf=0x772cd26140 offset=0
Arg 6: IS DEVICE PTR, val=0x105648700 buf=0x772cd26840 offset=0
Arg 7: IS DEVICE PTR, val=0x105648c00 buf=0x772cd26a00 offset=0
Arg 8: IS DEVICE PTR, val=0x105647400 buf=0x772cd26300 offset=0
Arg 9: IS DEVICE PTR, val=0x105647d00 buf=0x772cd264c0 offset=0
Arg 10: IS VALUE, size=4
Arg 11: IS VALUE, size=4
cuLaunchKernel: gridDimX=1 blockDimX=256 numArgs=12
GPU ainum = 256, inum = 256
Arg 0: IS DEVICE PTR, val=0x105644f00 buf=0x772cd25f80 offset=0
Arg 1: IS DEVICE PTR, val=0x105645000 buf=0x772cd25dc0 offset=0
Arg 2: IS DEVICE PTR, val=0x105648600 buf=0x772cd26680 offset=0
Arg 3: IS DEVICE PTR, val=0x105645900 buf=0x772cd25a40 offset=0
Arg 4: IS DEVICE PTR, val=0x105646200 buf=0x772cd25c00 offset=0
Arg 5: IS DEVICE PTR, val=0x105646b00 buf=0x772cd26140 offset=0
Arg 6: IS DEVICE PTR, val=0x105648700 buf=0x772cd26840 offset=0
Arg 7: IS DEVICE PTR, val=0x105648c00 buf=0x772cd26a00 offset=0
Arg 8: IS DEVICE PTR, val=0x105647400 buf=0x772cd26300 offset=0
Arg 9: IS DEVICE PTR, val=0x105647d00 buf=0x772cd264c0 offset=0
Arg 10: IS VALUE, size=4
Arg 11: IS VALUE, size=4
cuLaunchKernel: gridDimX=1 blockDimX=256 numArgs=12
GPU ainum = 256, inum = 256
Arg 0: IS DEVICE PTR, val=0x105644f00 buf=0x772cd25f80 offset=0
Arg 1: IS DEVICE PTR, val=0x105645000 buf=0x772cd25dc0 offset=0
Arg 2: IS DEVICE PTR, val=0x105648600 buf=0x772cd26680 offset=0
Arg 3: IS DEVICE PTR, val=0x105645900 buf=0x772cd25a40 offset=0
Arg 4: IS DEVICE PTR, val=0x105646200 buf=0x772cd25c00 offset=0
Arg 5: IS DEVICE PTR, val=0x105646b00 buf=0x772cd26140 offset=0
Arg 6: IS DEVICE PTR, val=0x105648700 buf=0x772cd26840 offset=0
Arg 7: IS DEVICE PTR, val=0x105648c00 buf=0x772cd26a00 offset=0
Arg 8: IS DEVICE PTR, val=0x105647400 buf=0x772cd26300 offset=0
Arg 9: IS DEVICE PTR, val=0x105647d00 buf=0x772cd264c0 offset=0
Arg 10: IS VALUE, size=4
Arg 11: IS VALUE, size=4
cuLaunchKernel: gridDimX=1 blockDimX=256 numArgs=12
GPU ainum = 256, inum = 256
Arg 0: IS DEVICE PTR, val=0x105644f00 buf=0x772cd25f80 offset=0
Arg 1: IS DEVICE PTR, val=0x105645000 buf=0x772cd25dc0 offset=0
Arg 2: IS DEVICE PTR, val=0x105648600 buf=0x772cd26680 offset=0
Arg 3: IS DEVICE PTR, val=0x105645900 buf=0x772cd25a40 offset=0
Arg 4: IS DEVICE PTR, val=0x105646200 buf=0x772cd25c00 offset=0
Arg 5: IS DEVICE PTR, val=0x105646b00 buf=0x772cd26140 offset=0
Arg 6: IS DEVICE PTR, val=0x105648700 buf=0x772cd26840 offset=0
Arg 7: IS DEVICE PTR, val=0x105648c00 buf=0x772cd26a00 offset=0
Arg 8: IS DEVICE PTR, val=0x105647400 buf=0x772cd26300 offset=0
Arg 9: IS DEVICE PTR, val=0x105647d00 buf=0x772cd264c0 offset=0
Arg 10: IS VALUE, size=4
Arg 11: IS VALUE, size=4
cuLaunchKernel: gridDimX=1 blockDimX=256 numArgs=12
GPU ainum = 256, inum = 256
Arg 0: IS DEVICE PTR, val=0x105644f00 buf=0x772cd25f80 offset=0
Arg 1: IS DEVICE PTR, val=0x105645000 buf=0x772cd25dc0 offset=0
Arg 2: IS DEVICE PTR, val=0x105648600 buf=0x772cd26680 offset=0
Arg 3: IS DEVICE PTR, val=0x105645900 buf=0x772cd25a40 offset=0
Arg 4: IS DEVICE PTR, val=0x105646200 buf=0x772cd25c00 offset=0
Arg 5: IS DEVICE PTR, val=0x105646b00 buf=0x772cd26140 offset=0
Arg 6: IS DEVICE PTR, val=0x105648700 buf=0x772cd26840 offset=0
Arg 7: IS DEVICE PTR, val=0x105648c00 buf=0x772cd26a00 offset=0
Arg 8: IS DEVICE PTR, val=0x105647400 buf=0x772cd26300 offset=0
Arg 9: IS DEVICE PTR, val=0x105647d00 buf=0x772cd264c0 offset=0
Arg 10: IS VALUE, size=4
Arg 11: IS VALUE, size=4
cuLaunchKernel: gridDimX=1 blockDimX=256 numArgs=12
GPU ainum = 256, inum = 256
Arg 0: IS DEVICE PTR, val=0x105644f00 buf=0x772cd25f80 offset=0
Arg 1: IS DEVICE PTR, val=0x105645000 buf=0x772cd25dc0 offset=0
Arg 2: IS DEVICE PTR, val=0x105648600 buf=0x772cd26680 offset=0
Arg 3: IS DEVICE PTR, val=0x105645900 buf=0x772cd25a40 offset=0
Arg 4: IS DEVICE PTR, val=0x105646200 buf=0x772cd25c00 offset=0
Arg 5: IS DEVICE PTR, val=0x105646b00 buf=0x772cd26140 offset=0
Arg 6: IS DEVICE PTR, val=0x105648700 buf=0x772cd26840 offset=0
Arg 7: IS DEVICE PTR, val=0x105648c00 buf=0x772cd26a00 offset=0
Arg 8: IS DEVICE PTR, val=0x105647400 buf=0x772cd26300 offset=0
Arg 9: IS DEVICE PTR, val=0x105647d00 buf=0x772cd264c0 offset=0
Arg 10: IS VALUE, size=4
Arg 11: IS VALUE, size=4
cuLaunchKernel: gridDimX=1 blockDimX=256 numArgs=12
GPU ainum = 256, inum = 256
Arg 0: IS DEVICE PTR, val=0x105644f00 buf=0x772cd25f80 offset=0
Arg 1: IS DEVICE PTR, val=0x105645000 buf=0x772cd25dc0 offset=0
Arg 2: IS DEVICE PTR, val=0x105648600 buf=0x772cd26680 offset=0
Arg 3: IS DEVICE PTR, val=0x105645900 buf=0x772cd25a40 offset=0
Arg 4: IS DEVICE PTR, val=0x105646200 buf=0x772cd25c00 offset=0
Arg 5: IS DEVICE PTR, val=0x105646b00 buf=0x772cd26140 offset=0
Arg 6: IS DEVICE PTR, val=0x105648700 buf=0x772cd26840 offset=0
Arg 7: IS DEVICE PTR, val=0x105648c00 buf=0x772cd26a00 offset=0
Arg 8: IS DEVICE PTR, val=0x105647400 buf=0x772cd26300 offset=0
Arg 9: IS DEVICE PTR, val=0x105647d00 buf=0x772cd264c0 offset=0
Arg 10: IS VALUE, size=4
Arg 11: IS VALUE, size=4
cuLaunchKernel: gridDimX=1 blockDimX=256 numArgs=12
GPU ainum = 256, inum = 256
Arg 0: IS DEVICE PTR, val=0x105644f00 buf=0x772cd25f80 offset=0
Arg 1: IS DEVICE PTR, val=0x105645000 buf=0x772cd25dc0 offset=0
Arg 2: IS DEVICE PTR, val=0x105648600 buf=0x772cd26680 offset=0
Arg 3: IS DEVICE PTR, val=0x105645900 buf=0x772cd25a40 offset=0
Arg 4: IS DEVICE PTR, val=0x105646200 buf=0x772cd25c00 offset=0
Arg 5: IS DEVICE PTR, val=0x105646b00 buf=0x772cd26140 offset=0
Arg 6: IS DEVICE PTR, val=0x105648700 buf=0x772cd26840 offset=0
Arg 7: IS DEVICE PTR, val=0x105648c00 buf=0x772cd26a00 offset=0
Arg 8: IS DEVICE PTR, val=0x105647400 buf=0x772cd26300 offset=0
Arg 9: IS DEVICE PTR, val=0x105647d00 buf=0x772cd264c0 offset=0
Arg 10: IS VALUE, size=4
Arg 11: IS VALUE, size=4
cuLaunchKernel: gridDimX=1 blockDimX=256 numArgs=12
GPU ainum = 256, inum = 256
Arg 0: IS DEVICE PTR, val=0x105644f00 buf=0x772cd25f80 offset=0
Arg 1: IS DEVICE PTR, val=0x105645000 buf=0x772cd25dc0 offset=0
Arg 2: IS DEVICE PTR, val=0x105648600 buf=0x772cd26680 offset=0
Arg 3: IS DEVICE PTR, val=0x105645900 buf=0x772cd25a40 offset=0
Arg 4: IS DEVICE PTR, val=0x105646200 buf=0x772cd25c00 offset=0
Arg 5: IS DEVICE PTR, val=0x105646b00 buf=0x772cd26140 offset=0
Arg 6: IS DEVICE PTR, val=0x105648700 buf=0x772cd26840 offset=0
Arg 7: IS DEVICE PTR, val=0x105648c00 buf=0x772cd26a00 offset=0
Arg 8: IS DEVICE PTR, val=0x105647400 buf=0x772cd26300 offset=0
Arg 9: IS DEVICE PTR, val=0x105647d00 buf=0x772cd264c0 offset=0
Arg 10: IS VALUE, size=4
Arg 11: IS VALUE, size=4
cuLaunchKernel: gridDimX=1 blockDimX=256 numArgs=12
GPU ainum = 256, inum = 256
Arg 0: IS DEVICE PTR, val=0x105644f00 buf=0x772cd25f80 offset=0
Arg 1: IS DEVICE PTR, val=0x105645000 buf=0x772cd25dc0 offset=0
Arg 2: IS DEVICE PTR, val=0x105648600 buf=0x772cd26680 offset=0
Arg 3: IS DEVICE PTR, val=0x105645900 buf=0x772cd25a40 offset=0
Arg 4: IS DEVICE PTR, val=0x105646200 buf=0x772cd25c00 offset=0
Arg 5: IS DEVICE PTR, val=0x105646b00 buf=0x772cd26140 offset=0
Arg 6: IS DEVICE PTR, val=0x105648700 buf=0x772cd26840 offset=0
Arg 7: IS DEVICE PTR, val=0x105648c00 buf=0x772cd26a00 offset=0
Arg 8: IS DEVICE PTR, val=0x105647400 buf=0x772cd26300 offset=0
Arg 9: IS DEVICE PTR, val=0x105647d00 buf=0x772cd264c0 offset=0
Arg 10: IS VALUE, size=4
Arg 11: IS VALUE, size=4
cuLaunchKernel: gridDimX=1 blockDimX=256 numArgs=12
GPU ainum = 256, inum = 256
Arg 0: IS DEVICE PTR, val=0x105644f00 buf=0x772cd25f80 offset=0
Arg 1: IS DEVICE PTR, val=0x105645000 buf=0x772cd25dc0 offset=0
Arg 2: IS DEVICE PTR, val=0x105648600 buf=0x772cd26680 offset=0
Arg 3: IS DEVICE PTR, val=0x105645900 buf=0x772cd25a40 offset=0
Arg 4: IS DEVICE PTR, val=0x105646200 buf=0x772cd25c00 offset=0
Arg 5: IS DEVICE PTR, val=0x105646b00 buf=0x772cd26140 offset=0
Arg 6: IS DEVICE PTR, val=0x105648700 buf=0x772cd26840 offset=0
Arg 7: IS DEVICE PTR, val=0x105648c00 buf=0x772cd26a00 offset=0
Arg 8: IS DEVICE PTR, val=0x105647400 buf=0x772cd26300 offset=0
Arg 9: IS DEVICE PTR, val=0x105647d00 buf=0x772cd264c0 offset=0
Arg 10: IS VALUE, size=4
Arg 11: IS VALUE, size=4
cuLaunchKernel: gridDimX=1 blockDimX=256 numArgs=12
GPU ainum = 256, inum = 256
Arg 0: IS DEVICE PTR, val=0x105644f00 buf=0x772cd25f80 offset=0
Arg 1: IS DEVICE PTR, val=0x105645000 buf=0x772cd25dc0 offset=0
Arg 2: IS DEVICE PTR, val=0x105648600 buf=0x772cd26680 offset=0
Arg 3: IS DEVICE PTR, val=0x105645900 buf=0x772cd25a40 offset=0
Arg 4: IS DEVICE PTR, val=0x105646200 buf=0x772cd25c00 offset=0
Arg 5: IS DEVICE PTR, val=0x105646b00 buf=0x772cd26140 offset=0
Arg 6: IS DEVICE PTR, val=0x105648700 buf=0x772cd26840 offset=0
Arg 7: IS DEVICE PTR, val=0x105648c00 buf=0x772cd26a00 offset=0
Arg 8: IS DEVICE PTR, val=0x105647400 buf=0x772cd26300 offset=0
Arg 9: IS DEVICE PTR, val=0x105647d00 buf=0x772cd264c0 offset=0
Arg 10: IS VALUE, size=4
Arg 11: IS VALUE, size=4
cuLaunchKernel: gridDimX=1 blockDimX=256 numArgs=12
GPU ainum = 256, inum = 256
Arg 0: IS DEVICE PTR, val=0x105644f00 buf=0x772cd25f80 offset=0
Arg 1: IS DEVICE PTR, val=0x105645000 buf=0x772cd25dc0 offset=0
Arg 2: IS DEVICE PTR, val=0x105648600 buf=0x772cd26680 offset=0
Arg 3: IS DEVICE PTR, val=0x105645900 buf=0x772cd25a40 offset=0
Arg 4: IS DEVICE PTR, val=0x105646200 buf=0x772cd25c00 offset=0
Arg 5: IS DEVICE PTR, val=0x105646b00 buf=0x772cd26140 offset=0
Arg 6: IS DEVICE PTR, val=0x105648700 buf=0x772cd26840 offset=0
Arg 7: IS DEVICE PTR, val=0x105648c00 buf=0x772cd26a00 offset=0
Arg 8: IS DEVICE PTR, val=0x105647400 buf=0x772cd26300 offset=0
Arg 9: IS DEVICE PTR, val=0x105647d00 buf=0x772cd264c0 offset=0
Arg 10: IS VALUE, size=4
Arg 11: IS VALUE, size=4
cuLaunchKernel: gridDimX=1 blockDimX=256 numArgs=12
GPU ainum = 256, inum = 256
Arg 0: IS DEVICE PTR, val=0x105644f00 buf=0x772cd25f80 offset=0
Arg 1: IS DEVICE PTR, val=0x105645000 buf=0x772cd25dc0 offset=0
Arg 2: IS DEVICE PTR, val=0x105648600 buf=0x772cd26680 offset=0
Arg 3: IS DEVICE PTR, val=0x105645900 buf=0x772cd25a40 offset=0
Arg 4: IS DEVICE PTR, val=0x105646200 buf=0x772cd25c00 offset=0
Arg 5: IS DEVICE PTR, val=0x105646b00 buf=0x772cd26140 offset=0
Arg 6: IS DEVICE PTR, val=0x105648700 buf=0x772cd26840 offset=0
Arg 7: IS DEVICE PTR, val=0x105648c00 buf=0x772cd26a00 offset=0
Arg 8: IS DEVICE PTR, val=0x105647400 buf=0x772cd26300 offset=0
Arg 9: IS DEVICE PTR, val=0x105647d00 buf=0x772cd264c0 offset=0
Arg 10: IS VALUE, size=4
Arg 11: IS VALUE, size=4
cuLaunchKernel: gridDimX=1 blockDimX=256 numArgs=12
GPU ainum = 256, inum = 256
Arg 0: IS DEVICE PTR, val=0x105644f00 buf=0x772cd25f80 offset=0
Arg 1: IS DEVICE PTR, val=0x105645000 buf=0x772cd25dc0 offset=0
Arg 2: IS DEVICE PTR, val=0x105648600 buf=0x772cd26680 offset=0
Arg 3: IS DEVICE PTR, val=0x105645900 buf=0x772cd25a40 offset=0
Arg 4: IS DEVICE PTR, val=0x105646200 buf=0x772cd25c00 offset=0
Arg 5: IS DEVICE PTR, val=0x105646b00 buf=0x772cd26140 offset=0
Arg 6: IS DEVICE PTR, val=0x105648700 buf=0x772cd26840 offset=0
Arg 7: IS DEVICE PTR, val=0x105648c00 buf=0x772cd26a00 offset=0
Arg 8: IS DEVICE PTR, val=0x105647400 buf=0x772cd26300 offset=0
Arg 9: IS DEVICE PTR, val=0x105647d00 buf=0x772cd264c0 offset=0
Arg 10: IS VALUE, size=4
Arg 11: IS VALUE, size=4
cuLaunchKernel: gridDimX=1 blockDimX=256 numArgs=12
GPU ainum = 256, inum = 256
Arg 0: IS DEVICE PTR, val=0x105644f00 buf=0x772cd25f80 offset=0
Arg 1: IS DEVICE PTR, val=0x105645000 buf=0x772cd25dc0 offset=0
Arg 2: IS DEVICE PTR, val=0x105648600 buf=0x772cd26680 offset=0
Arg 3: IS DEVICE PTR, val=0x105645900 buf=0x772cd25a40 offset=0
Arg 4: IS DEVICE PTR, val=0x105646200 buf=0x772cd25c00 offset=0
Arg 5: IS DEVICE PTR, val=0x105646b00 buf=0x772cd26140 offset=0
Arg 6: IS DEVICE PTR, val=0x105648700 buf=0x772cd26840 offset=0
Arg 7: IS DEVICE PTR, val=0x105648c00 buf=0x772cd26a00 offset=0
Arg 8: IS DEVICE PTR, val=0x105647400 buf=0x772cd26300 offset=0
Arg 9: IS DEVICE PTR, val=0x105647d00 buf=0x772cd264c0 offset=0
Arg 10: IS VALUE, size=4
Arg 11: IS VALUE, size=4
cuLaunchKernel: gridDimX=1 blockDimX=256 numArgs=12
GPU ainum = 256, inum = 256
Arg 0: IS DEVICE PTR, val=0x105644f00 buf=0x772cd25f80 offset=0
Arg 1: IS DEVICE PTR, val=0x105645000 buf=0x772cd25dc0 offset=0
Arg 2: IS DEVICE PTR, val=0x105648600 buf=0x772cd26680 offset=0
Arg 3: IS DEVICE PTR, val=0x105645900 buf=0x772cd25a40 offset=0
Arg 4: IS DEVICE PTR, val=0x105646200 buf=0x772cd25c00 offset=0
Arg 5: IS DEVICE PTR, val=0x105646b00 buf=0x772cd26140 offset=0
Arg 6: IS DEVICE PTR, val=0x105648700 buf=0x772cd26840 offset=0
Arg 7: IS DEVICE PTR, val=0x105648c00 buf=0x772cd26a00 offset=0
Arg 8: IS DEVICE PTR, val=0x105647400 buf=0x772cd26300 offset=0
Arg 9: IS DEVICE PTR, val=0x105647d00 buf=0x772cd264c0 offset=0
Arg 10: IS VALUE, size=4
Arg 11: IS VALUE, size=4
cuLaunchKernel: gridDimX=1 blockDimX=256 numArgs=12
GPU ainum = 256, inum = 256
Arg 0: IS DEVICE PTR, val=0x105644f00 buf=0x772cd25f80 offset=0
Arg 1: IS DEVICE PTR, val=0x105645000 buf=0x772cd25dc0 offset=0
Arg 2: IS DEVICE PTR, val=0x105648600 buf=0x772cd26680 offset=0
Arg 3: IS DEVICE PTR, val=0x105645900 buf=0x772cd25a40 offset=0
Arg 4: IS DEVICE PTR, val=0x105646200 buf=0x772cd25c00 offset=0
Arg 5: IS DEVICE PTR, val=0x105646b00 buf=0x772cd26140 offset=0
Arg 6: IS DEVICE PTR, val=0x105648700 buf=0x772cd26840 offset=0
Arg 7: IS DEVICE PTR, val=0x105648c00 buf=0x772cd26a00 offset=0
Arg 8: IS DEVICE PTR, val=0x105647400 buf=0x772cd26300 offset=0
Arg 9: IS DEVICE PTR, val=0x105647d00 buf=0x772cd264c0 offset=0
Arg 10: IS VALUE, size=4
Arg 11: IS VALUE, size=4
cuLaunchKernel: gridDimX=1 blockDimX=256 numArgs=12
GPU ainum = 256, inum = 256
Arg 0: IS DEVICE PTR, val=0x105644f00 buf=0x772cd25f80 offset=0
Arg 1: IS DEVICE PTR, val=0x105645000 buf=0x772cd25dc0 offset=0
Arg 2: IS DEVICE PTR, val=0x105648600 buf=0x772cd26680 offset=0
Arg 3: IS DEVICE PTR, val=0x105645900 buf=0x772cd25a40 offset=0
Arg 4: IS DEVICE PTR, val=0x105646200 buf=0x772cd25c00 offset=0
Arg 5: IS DEVICE PTR, val=0x105646b00 buf=0x772cd26140 offset=0
Arg 6: IS DEVICE PTR, val=0x105648700 buf=0x772cd26840 offset=0
Arg 7: IS DEVICE PTR, val=0x105648c00 buf=0x772cd26a00 offset=0
Arg 8: IS DEVICE PTR, val=0x105647400 buf=0x772cd26300 offset=0
Arg 9: IS DEVICE PTR, val=0x105647d00 buf=0x772cd264c0 offset=0
Arg 10: IS VALUE, size=4
Arg 11: IS VALUE, size=4
cuLaunchKernel: gridDimX=1 blockDimX=256 numArgs=12
GPU ainum = 256, inum = 256
Arg 0: IS DEVICE PTR, val=0x105644f00 buf=0x772cd25f80 offset=0
Arg 1: IS DEVICE PTR, val=0x105645000 buf=0x772cd25dc0 offset=0
Arg 2: IS DEVICE PTR, val=0x105648600 buf=0x772cd26680 offset=0
Arg 3: IS DEVICE PTR, val=0x105645900 buf=0x772cd25a40 offset=0
Arg 4: IS DEVICE PTR, val=0x105646200 buf=0x772cd25c00 offset=0
Arg 5: IS DEVICE PTR, val=0x105646b00 buf=0x772cd26140 offset=0
Arg 6: IS DEVICE PTR, val=0x105648700 buf=0x772cd26840 offset=0
Arg 7: IS DEVICE PTR, val=0x105648c00 buf=0x772cd26a00 offset=0
Arg 8: IS DEVICE PTR, val=0x105647400 buf=0x772cd26300 offset=0
Arg 9: IS DEVICE PTR, val=0x105647d00 buf=0x772cd264c0 offset=0
Arg 10: IS VALUE, size=4
Arg 11: IS VALUE, size=4
cuLaunchKernel: gridDimX=1 blockDimX=256 numArgs=12
GPU ainum = 256, inum = 256
Arg 0: IS DEVICE PTR, val=0x105644f00 buf=0x772cd25f80 offset=0
Arg 1: IS DEVICE PTR, val=0x105645000 buf=0x772cd25dc0 offset=0
Arg 2: IS DEVICE PTR, val=0x105648600 buf=0x772cd26680 offset=0
Arg 3: IS DEVICE PTR, val=0x105645900 buf=0x772cd25a40 offset=0
Arg 4: IS DEVICE PTR, val=0x105646200 buf=0x772cd25c00 offset=0
Arg 5: IS DEVICE PTR, val=0x105646b00 buf=0x772cd26140 offset=0
Arg 6: IS DEVICE PTR, val=0x105648700 buf=0x772cd26840 offset=0
Arg 7: IS DEVICE PTR, val=0x105648c00 buf=0x772cd26a00 offset=0
Arg 8: IS DEVICE PTR, val=0x105647400 buf=0x772cd26300 offset=0
Arg 9: IS DEVICE PTR, val=0x105647d00 buf=0x772cd264c0 offset=0
Arg 10: IS VALUE, size=4
Arg 11: IS VALUE, size=4
cuLaunchKernel: gridDimX=1 blockDimX=256 numArgs=12
GPU ainum = 256, inum = 256
Arg 0: IS DEVICE PTR, val=0x105644f00 buf=0x772cd25f80 offset=0
Arg 1: IS DEVICE PTR, val=0x105645000 buf=0x772cd25dc0 offset=0
Arg 2: IS DEVICE PTR, val=0x105648600 buf=0x772cd26680 offset=0
Arg 3: IS DEVICE PTR, val=0x105645900 buf=0x772cd25a40 offset=0
Arg 4: IS DEVICE PTR, val=0x105646200 buf=0x772cd25c00 offset=0
Arg 5: IS DEVICE PTR, val=0x105646b00 buf=0x772cd26140 offset=0
Arg 6: IS DEVICE PTR, val=0x105648700 buf=0x772cd26840 offset=0
Arg 7: IS DEVICE PTR, val=0x105648c00 buf=0x772cd26a00 offset=0
Arg 8: IS DEVICE PTR, val=0x105647400 buf=0x772cd26300 offset=0
Arg 9: IS DEVICE PTR, val=0x105647d00 buf=0x772cd264c0 offset=0
Arg 10: IS VALUE, size=4
Arg 11: IS VALUE, size=4
cuLaunchKernel: gridDimX=1 blockDimX=256 numArgs=12
GPU ainum = 256, inum = 256
Arg 0: IS DEVICE PTR, val=0x105644f00 buf=0x772cd25f80 offset=0
Arg 1: IS DEVICE PTR, val=0x105645000 buf=0x772cd25dc0 offset=0
Arg 2: IS DEVICE PTR, val=0x105648600 buf=0x772cd26680 offset=0
Arg 3: IS DEVICE PTR, val=0x105645900 buf=0x772cd25a40 offset=0
Arg 4: IS DEVICE PTR, val=0x105646200 buf=0x772cd25c00 offset=0
Arg 5: IS DEVICE PTR, val=0x105646b00 buf=0x772cd26140 offset=0
Arg 6: IS DEVICE PTR, val=0x105648700 buf=0x772cd26840 offset=0
Arg 7: IS DEVICE PTR, val=0x105648c00 buf=0x772cd26a00 offset=0
Arg 8: IS DEVICE PTR, val=0x105647400 buf=0x772cd26300 offset=0
Arg 9: IS DEVICE PTR, val=0x105647d00 buf=0x772cd264c0 offset=0
Arg 10: IS VALUE, size=4
Arg 11: IS VALUE, size=4
cuLaunchKernel: gridDimX=1 blockDimX=256 numArgs=12
GPU ainum = 256, inum = 256
Arg 0: IS DEVICE PTR, val=0x105644f00 buf=0x772cd25f80 offset=0
Arg 1: IS DEVICE PTR, val=0x105645000 buf=0x772cd25dc0 offset=0
Arg 2: IS DEVICE PTR, val=0x105648600 buf=0x772cd26680 offset=0
Arg 3: IS DEVICE PTR, val=0x105645900 buf=0x772cd25a40 offset=0
Arg 4: IS DEVICE PTR, val=0x105646200 buf=0x772cd25c00 offset=0
Arg 5: IS DEVICE PTR, val=0x105646b00 buf=0x772cd26140 offset=0
Arg 6: IS DEVICE PTR, val=0x105648700 buf=0x772cd26840 offset=0
Arg 7: IS DEVICE PTR, val=0x105648c00 buf=0x772cd26a00 offset=0
Arg 8: IS DEVICE PTR, val=0x105647400 buf=0x772cd26300 offset=0
Arg 9: IS DEVICE PTR, val=0x105647d00 buf=0x772cd264c0 offset=0
Arg 10: IS VALUE, size=4
Arg 11: IS VALUE, size=4
cuLaunchKernel: gridDimX=1 blockDimX=256 numArgs=12
GPU ainum = 256, inum = 256
Arg 0: IS DEVICE PTR, val=0x105644f00 buf=0x772cd25f80 offset=0
Arg 1: IS DEVICE PTR, val=0x105645000 buf=0x772cd25dc0 offset=0
Arg 2: IS DEVICE PTR, val=0x105648600 buf=0x772cd26680 offset=0
Arg 3: IS DEVICE PTR, val=0x105645900 buf=0x772cd25a40 offset=0
Arg 4: IS DEVICE PTR, val=0x105646200 buf=0x772cd25c00 offset=0
Arg 5: IS DEVICE PTR, val=0x105646b00 buf=0x772cd26140 offset=0
Arg 6: IS DEVICE PTR, val=0x105648700 buf=0x772cd26840 offset=0
Arg 7: IS DEVICE PTR, val=0x105648c00 buf=0x772cd26a00 offset=0
Arg 8: IS DEVICE PTR, val=0x105647400 buf=0x772cd26300 offset=0
Arg 9: IS DEVICE PTR, val=0x105647d00 buf=0x772cd264c0 offset=0
Arg 10: IS VALUE, size=4
Arg 11: IS VALUE, size=4
cuLaunchKernel: gridDimX=1 blockDimX=256 numArgs=12
GPU ainum = 256, inum = 256
Arg 0: IS DEVICE PTR, val=0x105644f00 buf=0x772cd25f80 offset=0
Arg 1: IS DEVICE PTR, val=0x105645000 buf=0x772cd25dc0 offset=0
Arg 2: IS DEVICE PTR, val=0x105648600 buf=0x772cd26680 offset=0
Arg 3: IS DEVICE PTR, val=0x105645900 buf=0x772cd25a40 offset=0
Arg 4: IS DEVICE PTR, val=0x105646200 buf=0x772cd25c00 offset=0
Arg 5: IS DEVICE PTR, val=0x105646b00 buf=0x772cd26140 offset=0
Arg 6: IS DEVICE PTR, val=0x105648700 buf=0x772cd26840 offset=0
Arg 7: IS DEVICE PTR, val=0x105648c00 buf=0x772cd26a00 offset=0
Arg 8: IS DEVICE PTR, val=0x105647400 buf=0x772cd26300 offset=0
Arg 9: IS DEVICE PTR, val=0x105647d00 buf=0x772cd264c0 offset=0
Arg 10: IS VALUE, size=4
Arg 11: IS VALUE, size=4
cuLaunchKernel: gridDimX=1 blockDimX=256 numArgs=12
GPU ainum = 256, inum = 256
Arg 0: IS DEVICE PTR, val=0x105644f00 buf=0x772cd25f80 offset=0
Arg 1: IS DEVICE PTR, val=0x105645000 buf=0x772cd25dc0 offset=0
Arg 2: IS DEVICE PTR, val=0x105648600 buf=0x772cd26680 offset=0
Arg 3: IS DEVICE PTR, val=0x105645900 buf=0x772cd25a40 offset=0
Arg 4: IS DEVICE PTR, val=0x105646200 buf=0x772cd25c00 offset=0
Arg 5: IS DEVICE PTR, val=0x105646b00 buf=0x772cd26140 offset=0
Arg 6: IS DEVICE PTR, val=0x105648700 buf=0x772cd26840 offset=0
Arg 7: IS DEVICE PTR, val=0x105648c00 buf=0x772cd26a00 offset=0
Arg 8: IS DEVICE PTR, val=0x105647400 buf=0x772cd26300 offset=0
Arg 9: IS DEVICE PTR, val=0x105647d00 buf=0x772cd264c0 offset=0
Arg 10: IS VALUE, size=4
Arg 11: IS VALUE, size=4
cuLaunchKernel: gridDimX=1 blockDimX=256 numArgs=12
GPU ainum = 256, inum = 256
Arg 0: IS DEVICE PTR, val=0x105644f00 buf=0x772cd25f80 offset=0
Arg 1: IS DEVICE PTR, val=0x105645000 buf=0x772cd25dc0 offset=0
Arg 2: IS DEVICE PTR, val=0x105648600 buf=0x772cd26680 offset=0
Arg 3: IS DEVICE PTR, val=0x105645900 buf=0x772cd25a40 offset=0
Arg 4: IS DEVICE PTR, val=0x105646200 buf=0x772cd25c00 offset=0
Arg 5: IS DEVICE PTR, val=0x105646b00 buf=0x772cd26140 offset=0
Arg 6: IS DEVICE PTR, val=0x105648700 buf=0x772cd26840 offset=0
Arg 7: IS DEVICE PTR, val=0x105648c00 buf=0x772cd26a00 offset=0
Arg 8: IS DEVICE PTR, val=0x105647400 buf=0x772cd26300 offset=0
Arg 9: IS DEVICE PTR, val=0x105647d00 buf=0x772cd264c0 offset=0
Arg 10: IS VALUE, size=4
Arg 11: IS VALUE, size=4
cuLaunchKernel: gridDimX=1 blockDimX=256 numArgs=12
GPU ainum = 256, inum = 256
Arg 0: IS DEVICE PTR, val=0x105644f00 buf=0x772cd25f80 offset=0
Arg 1: IS DEVICE PTR, val=0x105645000 buf=0x772cd25dc0 offset=0
Arg 2: IS DEVICE PTR, val=0x105648600 buf=0x772cd26680 offset=0
Arg 3: IS DEVICE PTR, val=0x105645900 buf=0x772cd25a40 offset=0
Arg 4: IS DEVICE PTR, val=0x105646200 buf=0x772cd25c00 offset=0
Arg 5: IS DEVICE PTR, val=0x105646b00 buf=0x772cd26140 offset=0
Arg 6: IS DEVICE PTR, val=0x105648700 buf=0x772cd26840 offset=0
Arg 7: IS DEVICE PTR, val=0x105648c00 buf=0x772cd26a00 offset=0
Arg 8: IS DEVICE PTR, val=0x105647400 buf=0x772cd26300 offset=0
Arg 9: IS DEVICE PTR, val=0x105647d00 buf=0x772cd264c0 offset=0
Arg 10: IS VALUE, size=4
Arg 11: IS VALUE, size=4
cuLaunchKernel: gridDimX=1 blockDimX=256 numArgs=12
GPU ainum = 256, inum = 256
Arg 0: IS DEVICE PTR, val=0x105644f00 buf=0x772cd25f80 offset=0
Arg 1: IS DEVICE PTR, val=0x105645000 buf=0x772cd25dc0 offset=0
Arg 2: IS DEVICE PTR, val=0x105648600 buf=0x772cd26680 offset=0
Arg 3: IS DEVICE PTR, val=0x105645900 buf=0x772cd25a40 offset=0
Arg 4: IS DEVICE PTR, val=0x105646200 buf=0x772cd25c00 offset=0
Arg 5: IS DEVICE PTR, val=0x105646b00 buf=0x772cd26140 offset=0
Arg 6: IS DEVICE PTR, val=0x105648700 buf=0x772cd26840 offset=0
Arg 7: IS DEVICE PTR, val=0x105648c00 buf=0x772cd26a00 offset=0
Arg 8: IS DEVICE PTR, val=0x105647400 buf=0x772cd26300 offset=0
Arg 9: IS DEVICE PTR, val=0x105647d00 buf=0x772cd264c0 offset=0
Arg 10: IS VALUE, size=4
Arg 11: IS VALUE, size=4
cuLaunchKernel: gridDimX=1 blockDimX=256 numArgs=12
GPU ainum = 256, inum = 256
Arg 0: IS DEVICE PTR, val=0x105644f00 buf=0x772cd25f80 offset=0
Arg 1: IS DEVICE PTR, val=0x105645000 buf=0x772cd25dc0 offset=0
Arg 2: IS DEVICE PTR, val=0x105648600 buf=0x772cd26680 offset=0
Arg 3: IS DEVICE PTR, val=0x105645900 buf=0x772cd25a40 offset=0
Arg 4: IS DEVICE PTR, val=0x105646200 buf=0x772cd25c00 offset=0
Arg 5: IS DEVICE PTR, val=0x105646b00 buf=0x772cd26140 offset=0
Arg 6: IS DEVICE PTR, val=0x105648700 buf=0x772cd26840 offset=0
Arg 7: IS DEVICE PTR, val=0x105648c00 buf=0x772cd26a00 offset=0
Arg 8: IS DEVICE PTR, val=0x105647400 buf=0x772cd26300 offset=0
Arg 9: IS DEVICE PTR, val=0x105647d00 buf=0x772cd264c0 offset=0
Arg 10: IS VALUE, size=4
Arg 11: IS VALUE, size=4
cuLaunchKernel: gridDimX=1 blockDimX=256 numArgs=12
GPU ainum = 256, inum = 256
Arg 0: IS DEVICE PTR, val=0x105644f00 buf=0x772cd25f80 offset=0
Arg 1: IS DEVICE PTR, val=0x105645000 buf=0x772cd25dc0 offset=0
Arg 2: IS DEVICE PTR, val=0x105648600 buf=0x772cd26680 offset=0
Arg 3: IS DEVICE PTR, val=0x105645900 buf=0x772cd25a40 offset=0
Arg 4: IS DEVICE PTR, val=0x105646200 buf=0x772cd25c00 offset=0
Arg 5: IS DEVICE PTR, val=0x105646b00 buf=0x772cd26140 offset=0
Arg 6: IS DEVICE PTR, val=0x105648700 buf=0x772cd26840 offset=0
Arg 7: IS DEVICE PTR, val=0x105648c00 buf=0x772cd26a00 offset=0
Arg 8: IS DEVICE PTR, val=0x105647400 buf=0x772cd26300 offset=0
Arg 9: IS DEVICE PTR, val=0x105647d00 buf=0x772cd264c0 offset=0
Arg 10: IS VALUE, size=4
Arg 11: IS VALUE, size=4
cuLaunchKernel: gridDimX=1 blockDimX=256 numArgs=12
GPU ainum = 256, inum = 256
Arg 0: IS DEVICE PTR, val=0x105644f00 buf=0x772cd25f80 offset=0
Arg 1: IS DEVICE PTR, val=0x105645000 buf=0x772cd25dc0 offset=0
Arg 2: IS DEVICE PTR, val=0x105648600 buf=0x772cd26680 offset=0
Arg 3: IS DEVICE PTR, val=0x105645900 buf=0x772cd25a40 offset=0
Arg 4: IS DEVICE PTR, val=0x105646200 buf=0x772cd25c00 offset=0
Arg 5: IS DEVICE PTR, val=0x105646b00 buf=0x772cd26140 offset=0
Arg 6: IS DEVICE PTR, val=0x105648700 buf=0x772cd26840 offset=0
Arg 7: IS DEVICE PTR, val=0x105648c00 buf=0x772cd26a00 offset=0
Arg 8: IS DEVICE PTR, val=0x105647400 buf=0x772cd26300 offset=0
Arg 9: IS DEVICE PTR, val=0x105647d00 buf=0x772cd264c0 offset=0
Arg 10: IS VALUE, size=4
Arg 11: IS VALUE, size=4
cuLaunchKernel: gridDimX=1 blockDimX=256 numArgs=12
GPU ainum = 256, inum = 256
Arg 0: IS DEVICE PTR, val=0x105644f00 buf=0x772cd25f80 offset=0
Arg 1: IS DEVICE PTR, val=0x105645000 buf=0x772cd25dc0 offset=0
Arg 2: IS DEVICE PTR, val=0x105648600 buf=0x772cd26680 offset=0
Arg 3: IS DEVICE PTR, val=0x105645900 buf=0x772cd25a40 offset=0
Arg 4: IS DEVICE PTR, val=0x105646200 buf=0x772cd25c00 offset=0
Arg 5: IS DEVICE PTR, val=0x105646b00 buf=0x772cd26140 offset=0
Arg 6: IS DEVICE PTR, val=0x105648700 buf=0x772cd26840 offset=0
Arg 7: IS DEVICE PTR, val=0x105648c00 buf=0x772cd26a00 offset=0
Arg 8: IS DEVICE PTR, val=0x105647400 buf=0x772cd26300 offset=0
Arg 9: IS DEVICE PTR, val=0x105647d00 buf=0x772cd264c0 offset=0
Arg 10: IS VALUE, size=4
Arg 11: IS VALUE, size=4
cuLaunchKernel: gridDimX=1 blockDimX=256 numArgs=12
GPU ainum = 256, inum = 256
Arg 0: IS DEVICE PTR, val=0x105644f00 buf=0x772cd25f80 offset=0
Arg 1: IS DEVICE PTR, val=0x105645000 buf=0x772cd25dc0 offset=0
Arg 2: IS DEVICE PTR, val=0x105648600 buf=0x772cd26680 offset=0
Arg 3: IS DEVICE PTR, val=0x105645900 buf=0x772cd25a40 offset=0
Arg 4: IS DEVICE PTR, val=0x105646200 buf=0x772cd25c00 offset=0
Arg 5: IS DEVICE PTR, val=0x105646b00 buf=0x772cd26140 offset=0
Arg 6: IS DEVICE PTR, val=0x105648700 buf=0x772cd26840 offset=0
Arg 7: IS DEVICE PTR, val=0x105648c00 buf=0x772cd26a00 offset=0
Arg 8: IS DEVICE PTR, val=0x105647400 buf=0x772cd26300 offset=0
Arg 9: IS DEVICE PTR, val=0x105647d00 buf=0x772cd264c0 offset=0
Arg 10: IS VALUE, size=4
Arg 11: IS VALUE, size=4
cuLaunchKernel: gridDimX=1 blockDimX=256 numArgs=12
GPU ainum = 256, inum = 256
Arg 0: IS DEVICE PTR, val=0x105644f00 buf=0x772cd25f80 offset=0
Arg 1: IS DEVICE PTR, val=0x105645000 buf=0x772cd25dc0 offset=0
Arg 2: IS DEVICE PTR, val=0x105648600 buf=0x772cd26680 offset=0
Arg 3: IS DEVICE PTR, val=0x105645900 buf=0x772cd25a40 offset=0
Arg 4: IS DEVICE PTR, val=0x105646200 buf=0x772cd25c00 offset=0
Arg 5: IS DEVICE PTR, val=0x105646b00 buf=0x772cd26140 offset=0
Arg 6: IS DEVICE PTR, val=0x105648700 buf=0x772cd26840 offset=0
Arg 7: IS DEVICE PTR, val=0x105648c00 buf=0x772cd26a00 offset=0
Arg 8: IS DEVICE PTR, val=0x105647400 buf=0x772cd26300 offset=0
Arg 9: IS DEVICE PTR, val=0x105647d00 buf=0x772cd264c0 offset=0
Arg 10: IS VALUE, size=4
Arg 11: IS VALUE, size=4
cuLaunchKernel: gridDimX=1 blockDimX=256 numArgs=12
GPU ainum = 256, inum = 256
Arg 0: IS DEVICE PTR, val=0x105644f00 buf=0x772cd25f80 offset=0
Arg 1: IS DEVICE PTR, val=0x105645000 buf=0x772cd25dc0 offset=0
Arg 2: IS DEVICE PTR, val=0x105648600 buf=0x772cd26680 offset=0
Arg 3: IS DEVICE PTR, val=0x105645900 buf=0x772cd25a40 offset=0
Arg 4: IS DEVICE PTR, val=0x105646200 buf=0x772cd25c00 offset=0
Arg 5: IS DEVICE PTR, val=0x105646b00 buf=0x772cd26140 offset=0
Arg 6: IS DEVICE PTR, val=0x105648700 buf=0x772cd26840 offset=0
Arg 7: IS DEVICE PTR, val=0x105648c00 buf=0x772cd26a00 offset=0
Arg 8: IS DEVICE PTR, val=0x105647400 buf=0x772cd26300 offset=0
Arg 9: IS DEVICE PTR, val=0x105647d00 buf=0x772cd264c0 offset=0
Arg 10: IS VALUE, size=4
Arg 11: IS VALUE, size=4
cuLaunchKernel: gridDimX=1 blockDimX=256 numArgs=12
GPU ainum = 256, inum = 256
Arg 0: IS DEVICE PTR, val=0x105644f00 buf=0x772cd25f80 offset=0
Arg 1: IS DEVICE PTR, val=0x105645000 buf=0x772cd25dc0 offset=0
Arg 2: IS DEVICE PTR, val=0x105648600 buf=0x772cd26680 offset=0
Arg 3: IS DEVICE PTR, val=0x105645900 buf=0x772cd25a40 offset=0
Arg 4: IS DEVICE PTR, val=0x105646200 buf=0x772cd25c00 offset=0
Arg 5: IS DEVICE PTR, val=0x105646b00 buf=0x772cd26140 offset=0
Arg 6: IS DEVICE PTR, val=0x105648700 buf=0x772cd26840 offset=0
Arg 7: IS DEVICE PTR, val=0x105648c00 buf=0x772cd26a00 offset=0
Arg 8: IS DEVICE PTR, val=0x105647400 buf=0x772cd26300 offset=0
Arg 9: IS DEVICE PTR, val=0x105647d00 buf=0x772cd264c0 offset=0
Arg 10: IS VALUE, size=4
Arg 11: IS VALUE, size=4
cuLaunchKernel: gridDimX=1 blockDimX=256 numArgs=12
GPU ainum = 256, inum = 256
Arg 0: IS DEVICE PTR, val=0x105644f00 buf=0x772cd25f80 offset=0
Arg 1: IS DEVICE PTR, val=0x105645000 buf=0x772cd25dc0 offset=0
Arg 2: IS DEVICE PTR, val=0x105648600 buf=0x772cd26680 offset=0
Arg 3: IS DEVICE PTR, val=0x105645900 buf=0x772cd25a40 offset=0
Arg 4: IS DEVICE PTR, val=0x105646200 buf=0x772cd25c00 offset=0
Arg 5: IS DEVICE PTR, val=0x105646b00 buf=0x772cd26140 offset=0
Arg 6: IS DEVICE PTR, val=0x105648700 buf=0x772cd26840 offset=0
Arg 7: IS DEVICE PTR, val=0x105648c00 buf=0x772cd26a00 offset=0
Arg 8: IS DEVICE PTR, val=0x105647400 buf=0x772cd26300 offset=0
Arg 9: IS DEVICE PTR, val=0x105647d00 buf=0x772cd264c0 offset=0
Arg 10: IS VALUE, size=4
Arg 11: IS VALUE, size=4
cuLaunchKernel: gridDimX=1 blockDimX=256 numArgs=12
GPU ainum = 256, inum = 256
Arg 0: IS DEVICE PTR, val=0x105644f00 buf=0x772cd25f80 offset=0
Arg 1: IS DEVICE PTR, val=0x105645000 buf=0x772cd25dc0 offset=0
Arg 2: IS DEVICE PTR, val=0x105648600 buf=0x772cd26680 offset=0
Arg 3: IS DEVICE PTR, val=0x105645900 buf=0x772cd25a40 offset=0
Arg 4: IS DEVICE PTR, val=0x105646200 buf=0x772cd25c00 offset=0
Arg 5: IS DEVICE PTR, val=0x105646b00 buf=0x772cd26140 offset=0
Arg 6: IS DEVICE PTR, val=0x105648700 buf=0x772cd26840 offset=0
Arg 7: IS DEVICE PTR, val=0x105648c00 buf=0x772cd26a00 offset=0
[...]
cuLaunchKernel: gridDimX=1 blockDimX=256 numArgs=12
GPU ainum = 256, inum = 256
Arg 0: IS DEVICE PTR, val=0x105644f00 buf=0x772cd26300 offset=0
Arg 1: IS DEVICE PTR, val=0x105645000 buf=0x772cd264c0 offset=0
Arg 2: IS DEVICE PTR, val=0x105648600 buf=0x772cd26680 offset=0
Arg 3: IS DEVICE PTR, val=0x105645900 buf=0x772cd26a00 offset=0
Arg 4: IS DEVICE PTR, val=0x105646200 buf=0x772cd26840 offset=0
Arg 5: IS DEVICE PTR, val=0x105646b00 buf=0x772cd26140 offset=0
Arg 6: IS DEVICE PTR, val=0x105648700 buf=0x772cd25dc0 offset=0
Arg 7: IS DEVICE PTR, val=0x105648c00 buf=0x772cd25f80 offset=0
Arg 8: IS DEVICE PTR, val=0x105647400 buf=0x772cd25c00 offset=0
Arg 9: IS DEVICE PTR, val=0x105647d00 buf=0x772cd25a40 offset=0
Arg 10: IS VALUE, size=4
Arg 11: IS VALUE, size=4
cuLaunchKernel: gridDimX=1 blockDimX=256 numArgs=12
GPU ainum = 256, inum = 256
Arg 0: IS DEVICE PTR, val=0x105644f00 buf=0x772cd26300 offset=0
Arg 1: IS DEVICE PTR, val=0x105645000 buf=0x772cd264c0 offset=0
Arg 2: IS DEVICE PTR, val=0x105648600 buf=0x772cd26680 offset=0
Arg 3: IS DEVICE PTR, val=0x105645900 buf=0x772cd26a00 offset=0
Arg 4: IS DEVICE PTR, val=0x105646200 buf=0x772cd26840 offset=0
Arg 5: IS DEVICE PTR, val=0x105646b00 buf=0x772cd26140 offset=0
Arg 6: IS DEVICE PTR, val=0x105648700 buf=0x772cd25dc0 offset=0
Arg 7: IS DEVICE PTR, val=0x105648c00 buf=0x772cd25f80 offset=0
Arg 8: IS DEVICE PTR, val=0x105647400 buf=0x772cd25c00 offset=0
Arg 9: IS DEVICE PTR, val=0x105647d00 buf=0x772cd25a40 offset=0
Arg 10: IS VALUE, size=4
Arg 11: IS VALUE, size=4
cuLaunchKernel: gridDimX=1 blockDimX=256 numArgs=12
GPU ainum = 256, inum = 256
Arg 0: IS DEVICE PTR, val=0x105644f00 buf=0x772cd26300 offset=0
Arg 1: IS DEVICE PTR, val=0x105645000 buf=0x772cd264c0 offset=0
Arg 2: IS DEVICE PTR, val=0x105648600 buf=0x772cd26680 offset=0
Arg 3: IS DEVICE PTR, val=0x105645900 buf=0x772cd26a00 offset=0
Arg 4: IS DEVICE PTR, val=0x105646200 buf=0x772cd26840 offset=0
Arg 5: IS DEVICE PTR, val=0x105646b00 buf=0x772cd26140 offset=0
Arg 6: IS DEVICE PTR, val=0x105648700 buf=0x772cd25dc0 offset=0
Arg 7: IS DEVICE PTR, val=0x105648c00 buf=0x772cd25f80 offset=0
Arg 8: IS DEVICE PTR, val=0x105647400 buf=0x772cd25c00 offset=0
Arg 9: IS DEVICE PTR, val=0x105647d00 buf=0x772cd25a40 offset=0
Arg 10: IS VALUE, size=4
Arg 11: IS VALUE, size=4
cuLaunchKernel: gridDimX=1 blockDimX=256 numArgs=12
GPU ainum = 256, inum = 256
Arg 0: IS DEVICE PTR, val=0x105644f00 buf=0x772cd26300 offset=0
Arg 1: IS DEVICE PTR, val=0x105645000 buf=0x772cd264c0 offset=0
Arg 2: IS DEVICE PTR, val=0x105648600 buf=0x772cd26680 offset=0
Arg 3: IS DEVICE PTR, val=0x105645900 buf=0x772cd26a00 offset=0
Arg 4: IS DEVICE PTR, val=0x105646200 buf=0x772cd26840 offset=0
Arg 5: IS DEVICE PTR, val=0x105646b00 buf=0x772cd26140 offset=0
Arg 6: IS DEVICE PTR, val=0x105648700 buf=0x772cd25dc0 offset=0
Arg 7: IS DEVICE PTR, val=0x105648c00 buf=0x772cd25f80 offset=0
Arg 8: IS DEVICE PTR, val=0x105647400 buf=0x772cd25c00 offset=0
Arg 9: IS DEVICE PTR, val=0x105647d00 buf=0x772cd25a40 offset=0
Arg 10: IS VALUE, size=4
Arg 11: IS VALUE, size=4
cuLaunchKernel: gridDimX=1 blockDimX=256 numArgs=12
GPU ainum = 256, inum = 256
Arg 0: IS DEVICE PTR, val=0x105644f00 buf=0x772cd26300 offset=0
Arg 1: IS DEVICE PTR, val=0x105645000 buf=0x772cd264c0 offset=0
Arg 2: IS DEVICE PTR, val=0x105648600 buf=0x772cd26680 offset=0
Arg 3: IS DEVICE PTR, val=0x105645900 buf=0x772cd26a00 offset=0
Arg 4: IS DEVICE PTR, val=0x105646200 buf=0x772cd26840 offset=0
Arg 5: IS DEVICE PTR, val=0x105646b00 buf=0x772cd26140 offset=0
Arg 6: IS DEVICE PTR, val=0x105648700 buf=0x772cd25dc0 offset=0
Arg 7: IS DEVICE PTR, val=0x105648c00 buf=0x772cd25f80 offset=0
Arg 8: IS DEVICE PTR, val=0x105647400 buf=0x772cd25c00 offset=0
Arg 9: IS DEVICE PTR, val=0x105647d00 buf=0x772cd25a40 offset=0
Arg 10: IS VALUE, size=4
Arg 11: IS VALUE, size=4
cuLaunchKernel: gridDimX=1 blockDimX=256 numArgs=12
GPU ainum = 256, inum = 256
Arg 0: IS DEVICE PTR, val=0x105644f00 buf=0x772cd26300 offset=0
Arg 1: IS DEVICE PTR, val=0x105645000 buf=0x772cd264c0 offset=0
Arg 2: IS DEVICE PTR, val=0x105648600 buf=0x772cd26680 offset=0
Arg 3: IS DEVICE PTR, val=0x105645900 buf=0x772cd26a00 offset=0
Arg 4: IS DEVICE PTR, val=0x105646200 buf=0x772cd26840 offset=0
Arg 5: IS DEVICE PTR, val=0x105646b00 buf=0x772cd26140 offset=0
Arg 6: IS DEVICE PTR, val=0x105648700 buf=0x772cd25dc0 offset=0
Arg 7: IS DEVICE PTR, val=0x105648c00 buf=0x772cd25f80 offset=0
Arg 8: IS DEVICE PTR, val=0x105647400 buf=0x772cd25c00 offset=0
Arg 9: IS DEVICE PTR, val=0x105647d00 buf=0x772cd25a40 offset=0
Arg 10: IS VALUE, size=4
Arg 11: IS VALUE, size=4
cuLaunchKernel: gridDimX=1 blockDimX=256 numArgs=12
GPU ainum = 256, inum = 256
Arg 0: IS DEVICE PTR, val=0x105644f00 buf=0x772cd26300 offset=0
Arg 1: IS DEVICE PTR, val=0x105645000 buf=0x772cd264c0 offset=0
Arg 2: IS DEVICE PTR, val=0x105648600 buf=0x772cd26680 offset=0
Arg 3: IS DEVICE PTR, val=0x105645900 buf=0x772cd26a00 offset=0
Arg 4: IS DEVICE PTR, val=0x105646200 buf=0x772cd26840 offset=0
Arg 5: IS DEVICE PTR, val=0x105646b00 buf=0x772cd26140 offset=0
Arg 6: IS DEVICE PTR, val=0x105648700 buf=0x772cd25dc0 offset=0
Arg 7: IS DEVICE PTR, val=0x105648c00 buf=0x772cd25f80 offset=0
Arg 8: IS DEVICE PTR, val=0x105647400 buf=0x772cd25c00 offset=0
Arg 9: IS DEVICE PTR, val=0x105647d00 buf=0x772cd25a40 offset=0
Arg 10: IS VALUE, size=4
Arg 11: IS VALUE, size=4
cuLaunchKernel: gridDimX=1 blockDimX=256 numArgs=12
GPU ainum = 256, inum = 256
Arg 0: IS DEVICE PTR, val=0x105644f00 buf=0x772cd26300 offset=0
Arg 1: IS DEVICE PTR, val=0x105645000 buf=0x772cd264c0 offset=0
Arg 2: IS DEVICE PTR, val=0x105648600 buf=0x772cd26680 offset=0
Arg 3: IS DEVICE PTR, val=0x105645900 buf=0x772cd26a00 offset=0
Arg 4: IS DEVICE PTR, val=0x105646200 buf=0x772cd26840 offset=0
Arg 5: IS DEVICE PTR, val=0x105646b00 buf=0x772cd26140 offset=0
Arg 6: IS DEVICE PTR, val=0x105648700 buf=0x772cd25dc0 offset=0
Arg 7: IS DEVICE PTR, val=0x105648c00 buf=0x772cd25f80 offset=0
Arg 8: IS DEVICE PTR, val=0x105647400 buf=0x772cd25c00 offset=0
Arg 9: IS DEVICE PTR, val=0x105647d00 buf=0x772cd25a40 offset=0
Arg 10: IS VALUE, size=4
Arg 11: IS VALUE, size=4
cuLaunchKernel: gridDimX=1 blockDimX=256 numArgs=12
GPU ainum = 256, inum = 256
Arg 0: IS DEVICE PTR, val=0x105644f00 buf=0x772cd26300 offset=0
Arg 1: IS DEVICE PTR, val=0x105645000 buf=0x772cd264c0 offset=0
Arg 2: IS DEVICE PTR, val=0x105648600 buf=0x772cd26680 offset=0
Arg 3: IS DEVICE PTR, val=0x105645900 buf=0x772cd26a00 offset=0
Arg 4: IS DEVICE PTR, val=0x105646200 buf=0x772cd26840 offset=0
Arg 5: IS DEVICE PTR, val=0x105646b00 buf=0x772cd26140 offset=0
Arg 6: IS DEVICE PTR, val=0x105648700 buf=0x772cd25dc0 offset=0
Arg 7: IS DEVICE PTR, val=0x105648c00 buf=0x772cd25f80 offset=0
Arg 8: IS DEVICE PTR, val=0x105647400 buf=0x772cd25c00 offset=0
Arg 9: IS DEVICE PTR, val=0x105647d00 buf=0x772cd25a40 offset=0
Arg 10: IS VALUE, size=4
Arg 11: IS VALUE, size=4
cuLaunchKernel: gridDimX=1 blockDimX=256 numArgs=12
GPU ainum = 256, inum = 256
Arg 0: IS DEVICE PTR, val=0x105644f00 buf=0x772cd26300 offset=0
Arg 1: IS DEVICE PTR, val=0x105645000 buf=0x772cd264c0 offset=0
Arg 2: IS DEVICE PTR, val=0x105648600 buf=0x772cd26680 offset=0
Arg 3: IS DEVICE PTR, val=0x105645900 buf=0x772cd26a00 offset=0
Arg 4: IS DEVICE PTR, val=0x105646200 buf=0x772cd26840 offset=0
Arg 5: IS DEVICE PTR, val=0x105646b00 buf=0x772cd26140 offset=0
Arg 6: IS DEVICE PTR, val=0x105648700 buf=0x772cd25dc0 offset=0
Arg 7: IS DEVICE PTR, val=0x105648c00 buf=0x772cd25f80 offset=0
Arg 8: IS DEVICE PTR, val=0x105647400 buf=0x772cd25c00 offset=0
Arg 9: IS DEVICE PTR, val=0x105647d00 buf=0x772cd25a40 offset=0
Arg 10: IS VALUE, size=4
Arg 11: IS VALUE, size=4
cuLaunchKernel: gridDimX=1 blockDimX=256 numArgs=12
GPU ainum = 256, inum = 256
Arg 0: IS DEVICE PTR, val=0x105644f00 buf=0x772cd26300 offset=0
Arg 1: IS DEVICE PTR, val=0x105645000 buf=0x772cd264c0 offset=0
Arg 2: IS DEVICE PTR, val=0x105648600 buf=0x772cd26680 offset=0
Arg 3: IS DEVICE PTR, val=0x105645900 buf=0x772cd26a00 offset=0
Arg 4: IS DEVICE PTR, val=0x105646200 buf=0x772cd26840 offset=0
Arg 5: IS DEVICE PTR, val=0x105646b00 buf=0x772cd26140 offset=0
Arg 6: IS DEVICE PTR, val=0x105648700 buf=0x772cd25dc0 offset=0
Arg 7: IS DEVICE PTR, val=0x105648c00 buf=0x772cd25f80 offset=0
Arg 8: IS DEVICE PTR, val=0x105647400 buf=0x772cd25c00 offset=0
Arg 9: IS DEVICE PTR, val=0x105647d00 buf=0x772cd25a40 offset=0
Arg 10: IS VALUE, size=4
Arg 11: IS VALUE, size=4
cuLaunchKernel: gridDimX=1 blockDimX=256 numArgs=12
GPU ainum = 256, inum = 256
Arg 0: IS DEVICE PTR, val=0x105644f00 buf=0x772cd26300 offset=0
Arg 1: IS DEVICE PTR, val=0x105645000 buf=0x772cd264c0 offset=0
Arg 2: IS DEVICE PTR, val=0x105648600 buf=0x772cd26680 offset=0
Arg 3: IS DEVICE PTR, val=0x105645900 buf=0x772cd26a00 offset=0
Arg 4: IS DEVICE PTR, val=0x105646200 buf=0x772cd26840 offset=0
Arg 5: IS DEVICE PTR, val=0x105646b00 buf=0x772cd26140 offset=0
Arg 6: IS DEVICE PTR, val=0x105648700 buf=0x772cd25dc0 offset=0
Arg 7: IS DEVICE PTR, val=0x105648c00 buf=0x772cd25f80 offset=0
Arg 8: IS DEVICE PTR, val=0x105647400 buf=0x772cd25c00 offset=0
Arg 9: IS DEVICE PTR, val=0x105647d00 buf=0x772cd25a40 offset=0
Arg 10: IS VALUE, size=4
Arg 11: IS VALUE, size=4
cuLaunchKernel: gridDimX=1 blockDimX=256 numArgs=12
GPU ainum = 256, inum = 256
Arg 0: IS DEVICE PTR, val=0x105644f00 buf=0x772cd26300 offset=0
Arg 1: IS DEVICE PTR, val=0x105645000 buf=0x772cd264c0 offset=0
Arg 2: IS DEVICE PTR, val=0x105648600 buf=0x772cd26680 offset=0
Arg 3: IS DEVICE PTR, val=0x105645900 buf=0x772cd26a00 offset=0
Arg 4: IS DEVICE PTR, val=0x105646200 buf=0x772cd26840 offset=0
Arg 5: IS DEVICE PTR, val=0x105646b00 buf=0x772cd26140 offset=0
Arg 6: IS DEVICE PTR, val=0x105648700 buf=0x772cd25dc0 offset=0
Arg 7: IS DEVICE PTR, val=0x105648c00 buf=0x772cd25f80 offset=0
Arg 8: IS DEVICE PTR, val=0x105647400 buf=0x772cd25c00 offset=0
Arg 9: IS DEVICE PTR, val=0x105647d00 buf=0x772cd25a40 offset=0
Arg 10: IS VALUE, size=4
Arg 11: IS VALUE, size=4
cuLaunchKernel: gridDimX=1 blockDimX=256 numArgs=12
GPU ainum = 256, inum = 256
Arg 0: IS DEVICE PTR, val=0x105644f00 buf=0x772cd26300 offset=0
Arg 1: IS DEVICE PTR, val=0x105645000 buf=0x772cd264c0 offset=0
Arg 2: IS DEVICE PTR, val=0x105648600 buf=0x772cd26680 offset=0
Arg 3: IS DEVICE PTR, val=0x105645900 buf=0x772cd26a00 offset=0
Arg 4: IS DEVICE PTR, val=0x105646200 buf=0x772cd26840 offset=0
Arg 5: IS DEVICE PTR, val=0x105646b00 buf=0x772cd26140 offset=0
Arg 6: IS DEVICE PTR, val=0x105648700 buf=0x772cd25dc0 offset=0
Arg 7: IS DEVICE PTR, val=0x105648c00 buf=0x772cd25f80 offset=0
Arg 8: IS DEVICE PTR, val=0x105647400 buf=0x772cd25c00 offset=0
Arg 9: IS DEVICE PTR, val=0x105647d00 buf=0x772cd25a40 offset=0
Arg 10: IS VALUE, size=4
Arg 11: IS VALUE, size=4
cuLaunchKernel: gridDimX=1 blockDimX=256 numArgs=12
GPU ainum = 256, inum = 256
Arg 0: IS DEVICE PTR, val=0x105644f00 buf=0x772cd26300 offset=0
Arg 1: IS DEVICE PTR, val=0x105645000 buf=0x772cd264c0 offset=0
Arg 2: IS DEVICE PTR, val=0x105648600 buf=0x772cd26680 offset=0
Arg 3: IS DEVICE PTR, val=0x105645900 buf=0x772cd26a00 offset=0
Arg 4: IS DEVICE PTR, val=0x105646200 buf=0x772cd26840 offset=0
Arg 5: IS DEVICE PTR, val=0x105646b00 buf=0x772cd26140 offset=0
Arg 6: IS DEVICE PTR, val=0x105648700 buf=0x772cd25dc0 offset=0
Arg 7: IS DEVICE PTR, val=0x105648c00 buf=0x772cd25f80 offset=0
Arg 8: IS DEVICE PTR, val=0x105647400 buf=0x772cd25c00 offset=0
Arg 9: IS DEVICE PTR, val=0x105647d00 buf=0x772cd25a40 offset=0
Arg 10: IS VALUE, size=4
Arg 11: IS VALUE, size=4
cuLaunchKernel: gridDimX=1 blockDimX=256 numArgs=12
GPU ainum = 256, inum = 256
Arg 0: IS DEVICE PTR, val=0x105644f00 buf=0x772cd26300 offset=0
Arg 1: IS DEVICE PTR, val=0x105645000 buf=0x772cd264c0 offset=0
Arg 2: IS DEVICE PTR, val=0x105648600 buf=0x772cd26680 offset=0
Arg 3: IS DEVICE PTR, val=0x105645900 buf=0x772cd26a00 offset=0
Arg 4: IS DEVICE PTR, val=0x105646200 buf=0x772cd26840 offset=0
Arg 5: IS DEVICE PTR, val=0x105646b00 buf=0x772cd26140 offset=0
Arg 6: IS DEVICE PTR, val=0x105648700 buf=0x772cd25dc0 offset=0
Arg 7: IS DEVICE PTR, val=0x105648c00 buf=0x772cd25f80 offset=0
Arg 8: IS DEVICE PTR, val=0x105647400 buf=0x772cd25c00 offset=0
Arg 9: IS DEVICE PTR, val=0x105647d00 buf=0x772cd25a40 offset=0
Arg 10: IS VALUE, size=4
Arg 11: IS VALUE, size=4
cuLaunchKernel: gridDimX=1 blockDimX=256 numArgs=12
GPU ainum = 256, inum = 256
Arg 0: IS DEVICE PTR, val=0x105644f00 buf=0x772cd26300 offset=0
Arg 1: IS DEVICE PTR, val=0x105645000 buf=0x772cd264c0 offset=0
Arg 2: IS DEVICE PTR, val=0x105648600 buf=0x772cd26680 offset=0
Arg 3: IS DEVICE PTR, val=0x105645900 buf=0x772cd26a00 offset=0
Arg 4: IS DEVICE PTR, val=0x105646200 buf=0x772cd26840 offset=0
Arg 5: IS DEVICE PTR, val=0x105646b00 buf=0x772cd26140 offset=0
Arg 6: IS DEVICE PTR, val=0x105648700 buf=0x772cd25dc0 offset=0
Arg 7: IS DEVICE PTR, val=0x105648c00 buf=0x772cd25f80 offset=0
Arg 8: IS DEVICE PTR, val=0x105647400 buf=0x772cd25c00 offset=0
Arg 9: IS DEVICE PTR, val=0x105647d00 buf=0x772cd25a40 offset=0
Arg 10: IS VALUE, size=4
Arg 11: IS VALUE, size=4
cuLaunchKernel: gridDimX=1 blockDimX=256 numArgs=12
GPU ainum = 256, inum = 256
Arg 0: IS DEVICE PTR, val=0x105644f00 buf=0x772cd26300 offset=0
Arg 1: IS DEVICE PTR, val=0x105645000 buf=0x772cd264c0 offset=0
Arg 2: IS DEVICE PTR, val=0x105648600 buf=0x772cd26680 offset=0
Arg 3: IS DEVICE PTR, val=0x105645900 buf=0x772cd26a00 offset=0
Arg 4: IS DEVICE PTR, val=0x105646200 buf=0x772cd26840 offset=0
Arg 5: IS DEVICE PTR, val=0x105646b00 buf=0x772cd26140 offset=0
Arg 6: IS DEVICE PTR, val=0x105648700 buf=0x772cd25dc0 offset=0
Arg 7: IS DEVICE PTR, val=0x105648c00 buf=0x772cd25f80 offset=0
Arg 8: IS DEVICE PTR, val=0x105647400 buf=0x772cd25c00 offset=0
Arg 9: IS DEVICE PTR, val=0x105647d00 buf=0x772cd25a40 offset=0
Arg 10: IS VALUE, size=4
Arg 11: IS VALUE, size=4
cuLaunchKernel: gridDimX=1 blockDimX=256 numArgs=12
GPU ainum = 256, inum = 256
Arg 0: IS DEVICE PTR, val=0x105644f00 buf=0x772cd26300 offset=0
Arg 1: IS DEVICE PTR, val=0x105645000 buf=0x772cd264c0 offset=0
Arg 2: IS DEVICE PTR, val=0x105648600 buf=0x772cd26680 offset=0
Arg 3: IS DEVICE PTR, val=0x105645900 buf=0x772cd26a00 offset=0
Arg 4: IS DEVICE PTR, val=0x105646200 buf=0x772cd26840 offset=0
Arg 5: IS DEVICE PTR, val=0x105646b00 buf=0x772cd26140 offset=0
Arg 6: IS DEVICE PTR, val=0x105648700 buf=0x772cd25dc0 offset=0
Arg 7: IS DEVICE PTR, val=0x105648c00 buf=0x772cd25f80 offset=0
Arg 8: IS DEVICE PTR, val=0x105647400 buf=0x772cd25c00 offset=0
Arg 9: IS DEVICE PTR, val=0x105647d00 buf=0x772cd25a40 offset=0
Arg 10: IS VALUE, size=4
Arg 11: IS VALUE, size=4
cuLaunchKernel: gridDimX=1 blockDimX=256 numArgs=12
GPU ainum = 256, inum = 256
Arg 0: IS DEVICE PTR, val=0x105644f00 buf=0x772cd26300 offset=0
Arg 1: IS DEVICE PTR, val=0x105645000 buf=0x772cd264c0 offset=0
Arg 2: IS DEVICE PTR, val=0x105648600 buf=0x772cd26680 offset=0
Arg 3: IS DEVICE PTR, val=0x105645900 buf=0x772cd26a00 offset=0
Arg 4: IS DEVICE PTR, val=0x105646200 buf=0x772cd26840 offset=0
Arg 5: IS DEVICE PTR, val=0x105646b00 buf=0x772cd26140 offset=0
Arg 6: IS DEVICE PTR, val=0x105648700 buf=0x772cd25dc0 offset=0
Arg 7: IS DEVICE PTR, val=0x105648c00 buf=0x772cd25f80 offset=0
Arg 8: IS DEVICE PTR, val=0x105647400 buf=0x772cd25c00 offset=0
Arg 9: IS DEVICE PTR, val=0x105647d00 buf=0x772cd25a40 offset=0
Arg 10: IS VALUE, size=4
Arg 11: IS VALUE, size=4
cuLaunchKernel: gridDimX=1 blockDimX=256 numArgs=12
GPU ainum = 256, inum = 256
Arg 0: IS DEVICE PTR, val=0x105644f00 buf=0x772cd26300 offset=0
Arg 1: IS DEVICE PTR, val=0x105645000 buf=0x772cd264c0 offset=0
Arg 2: IS DEVICE PTR, val=0x105648600 buf=0x772cd26680 offset=0
Arg 3: IS DEVICE PTR, val=0x105645900 buf=0x772cd26a00 offset=0
Arg 4: IS DEVICE PTR, val=0x105646200 buf=0x772cd26840 offset=0
Arg 5: IS DEVICE PTR, val=0x105646b00 buf=0x772cd26140 offset=0
Arg 6: IS DEVICE PTR, val=0x105648700 buf=0x772cd25dc0 offset=0
Arg 7: IS DEVICE PTR, val=0x105648c00 buf=0x772cd25f80 offset=0
Arg 8: IS DEVICE PTR, val=0x105647400 buf=0x772cd25c00 offset=0
Arg 9: IS DEVICE PTR, val=0x105647d00 buf=0x772cd25a40 offset=0
Arg 10: IS VALUE, size=4
Arg 11: IS VALUE, size=4
cuLaunchKernel: gridDimX=1 blockDimX=256 numArgs=12
GPU ainum = 256, inum = 256
Arg 0: IS DEVICE PTR, val=0x105644f00 buf=0x772cd26300 offset=0
Arg 1: IS DEVICE PTR, val=0x105645000 buf=0x772cd264c0 offset=0
Arg 2: IS DEVICE PTR, val=0x105648600 buf=0x772cd26680 offset=0
Arg 3: IS DEVICE PTR, val=0x105645900 buf=0x772cd26a00 offset=0
Arg 4: IS DEVICE PTR, val=0x105646200 buf=0x772cd26840 offset=0
Arg 5: IS DEVICE PTR, val=0x105646b00 buf=0x772cd26140 offset=0
Arg 6: IS DEVICE PTR, val=0x105648700 buf=0x772cd25dc0 offset=0
Arg 7: IS DEVICE PTR, val=0x105648c00 buf=0x772cd25f80 offset=0
Arg 8: IS DEVICE PTR, val=0x105647400 buf=0x772cd25c00 offset=0
Arg 9: IS DEVICE PTR, val=0x105647d00 buf=0x772cd25a40 offset=0
Arg 10: IS VALUE, size=4
Arg 11: IS VALUE, size=4
cuLaunchKernel: gridDimX=1 blockDimX=256 numArgs=12
GPU ainum = 256, inum = 256
Arg 0: IS DEVICE PTR, val=0x105644f00 buf=0x772cd26300 offset=0
Arg 1: IS DEVICE PTR, val=0x105645000 buf=0x772cd264c0 offset=0
Arg 2: IS DEVICE PTR, val=0x105648600 buf=0x772cd26680 offset=0
Arg 3: IS DEVICE PTR, val=0x105645900 buf=0x772cd26a00 offset=0
Arg 4: IS DEVICE PTR, val=0x105646200 buf=0x772cd26840 offset=0
Arg 5: IS DEVICE PTR, val=0x105646b00 buf=0x772cd26140 offset=0
Arg 6: IS DEVICE PTR, val=0x105648700 buf=0x772cd25dc0 offset=0
Arg 7: IS DEVICE PTR, val=0x105648c00 buf=0x772cd25f80 offset=0
Arg 8: IS DEVICE PTR, val=0x105647400 buf=0x772cd25c00 offset=0
Arg 9: IS DEVICE PTR, val=0x105647d00 buf=0x772cd25a40 offset=0
Arg 10: IS VALUE, size=4
Arg 11: IS VALUE, size=4
cuLaunchKernel: gridDimX=1 blockDimX=256 numArgs=12
GPU ainum = 256, inum = 256
Arg 0: IS DEVICE PTR, val=0x105644f00 buf=0x772cd26300 offset=0
Arg 1: IS DEVICE PTR, val=0x105645000 buf=0x772cd264c0 offset=0
Arg 2: IS DEVICE PTR, val=0x105648600 buf=0x772cd26680 offset=0
Arg 3: IS DEVICE PTR, val=0x105645900 buf=0x772cd26a00 offset=0
Arg 4: IS DEVICE PTR, val=0x105646200 buf=0x772cd26840 offset=0
Arg 5: IS DEVICE PTR, val=0x105646b00 buf=0x772cd26140 offset=0
Arg 6: IS DEVICE PTR, val=0x105648700 buf=0x772cd25dc0 offset=0
Arg 7: IS DEVICE PTR, val=0x105648c00 buf=0x772cd25f80 offset=0
Arg 8: IS DEVICE PTR, val=0x105647400 buf=0x772cd25c00 offset=0
Arg 9: IS DEVICE PTR, val=0x105647d00 buf=0x772cd25a40 offset=0
Arg 10: IS VALUE, size=4
Arg 11: IS VALUE, size=4
cuLaunchKernel: gridDimX=1 blockDimX=256 numArgs=12
GPU ainum = 256, inum = 256
       110   500            0              29.808101      620.20762      0              0              0              0              0              0              0              0              0              0              0              0              0              0              6            
Loop time of 2.55787 on 1 procs for 100 steps with 21 atoms

Performance: 0.844 ns/day, 28.421 hours/ns, 39.095 timesteps/s, 820.995 atom-step/s
3.8% CPU use with 1 MPI tasks x no OpenMP threads

MPI task timing breakdown:
Section |  min time  |  avg time  |  max time  |%varavg| %total
---------------------------------------------------------------
Pair    | 4.4376e-05 | 4.4376e-05 | 4.4376e-05 |   0.0 |  0.00
Neigh   | 0.0038095  | 0.0038095  | 0.0038095  |   0.0 |  0.15
Comm    | 0.00017104 | 0.00017104 | 0.00017104 |   0.0 |  0.01
Output  | 0.00031    | 0.00031    | 0.00031    |   0.0 |  0.01
Modify  | 2.5535     | 2.5535     | 2.5535     |   0.0 | 99.83
Other   |            | 5.995e-05  |            |       |  0.00

Nlocal:             21 ave          21 max          21 min
Histogram: 1 0 0 0 0 0 0 0 0 0
Nghost:            546 ave         546 max         546 min
Histogram: 1 0 0 0 0 0 0 0 0 0
Neighs:           1090 ave        1090 max        1090 min
Histogram: 1 0 0 0 0 0 0 0 0 0

Total # of neighbors = 1090
Ave neighs/atom = 51.904762
Neighbor list builds = 10
Dangerous builds not checked
Total wall time: 0:00:03
