LAMMPS data file via write_data, version 30 Mar 2026, timestep = 88672, units = lj

896 atoms
2 atom types
768 bonds
2 bond types
640 angles
2 angle types

10.906313737623016 21.093686262376977 xlo xhi
17.324205941368888 30.67579405863156 ylo yhi
16.19025056408782 27.80974943591147 zlo zhi

Masses

1 1
2 2

Atoms # molecular

387 0 2 11.524582464407272 18.831426162464 17.62724980202256 1 1 0
20 0 1 12.856743672740294 18.538829537723945 16.503898881328023 0 0 0
117 0 1 12.01009798409329 17.516453266874024 17.22797411973048 0 1 -1
552 0 1 11.892856072495752 17.85496653567942 18.198613807385843 1 0 0
19 0 1 13.292364788272135 18.16707710777487 17.323671763738687 0 0 0
394 0 1 13.119852928042299 19.432072136001512 16.755394642637704 0 1 0
395 0 1 12.132290321488231 19.576653362164862 16.69357520163168 0 1 0
272 0 1 13.926107433922656 18.776602011810123 18.12474796281881 1 0 0
118 0 1 11.502190264567169 18.030942508296384 16.537095317639753 0 1 -1
551 0 1 10.923385622361508 17.780021028292037 17.965167886912276 1 0 0
553 0 1 12.818034115739753 17.855257299461563 18.578139030060033 1 0 0
351 0 1 13.43767523618175 17.726402805936516 16.311574573006055 0 1 0
274 0 1 15.290857111533777 19.04100143110666 16.760652591591153 1 0 0
393 0 1 14.072347882058526 19.264595625138647 17.00974422799336 0 1 0
627 0 2 14.64511034708121 17.5022009534935 17.076445510364294 0 1 1
273 0 1 14.753794219324448 18.782490663932986 17.563598018666543 1 0 0
568 0 1 15.484569970444571 20.013208434985245 17.524023220105416 0 0 0
195 0 2 15.4778383594283 18.36232800022788 18.6106152269966 0 1 0
18 0 1 13.71277684567659 17.76661814053282 18.13783915227919 0 0 0
626 0 2 14.769814810700508 17.961778943473693 27.59239069387001 0 1 0
196 0 2 16.17307234972568 18.80936676377565 17.740676714427767 0 1 0
63 0 1 15.84497500645471 30.58203891616843 16.210802884514862 0 -1 0
548 0 1 18.365457606396582 18.466629810951925 17.111849009421388 0 0 0
547 0 1 17.44184455127404 18.84553476388579 17.05380985651275 0 0 0
391 0 2 17.391599750205287 20.007523033751085 16.570096868070152 0 1 0
262 0 2 17.198883064005155 17.71456772321934 16.25758172058037 0 0 0
135 0 2 16.347690686160146 17.467308985782225 17.324140743686574 0 1 0
388 0 2 20.686740579652128 18.775979773466066 17.012928520255613 0 1 0
396 0 1 11.153431243234296 19.70108546757373 16.531210469551585 0 1 0
528 0 2 18.252610497128188 19.385512942401682 18.269018834744173 0 0 0
549 0 1 19.265177228112968 18.112640873740386 17.3671828301612 0 0 0
389 0 2 19.606756233290362 19.096985888262193 16.59991339741574 0 1 0
550 0 1 20.157431057516717 17.778910003776762 17.67133760562574 0 0 0
279 0 2 20.473319267656528 19.193685979428633 18.38729197805241 0 0 0
390 0 2 18.499950986536323 19.551649777339893 16.509058519511242 0 1 0
200 0 1 20.392419083666468 17.688167861648218 16.42452127529963 -1 1 0
201 0 1 20.654668637202988 30.365898505675162 17.116035361587517 -1 0 0
280 0 2 10.908029998181725 20.17860827067222 18.09931690189299 1 0 0
359 0 2 13.05043231514502 21.053558609338417 17.913130322798576 1 0 0
709 0 2 11.800108684487622 20.782119893097676 16.951221522059512 0 0 1
463 0 1 13.449816010485334 22.426433390915683 17.295670689002417 1 0 0
842 0 1 12.274885839381295 22.47697029457411 17.496825076893426 0 0 1
841 0 1 11.760547798028183 22.348496439820977 16.648921135979652 0 0 1
499 0 2 12.008426475023084 21.562906907846383 18.752807920959413 1 0 0
567 0 1 15.699975506052223 20.61689027078236 18.291589735497833 0 0 0
14 0 2 14.433452397128107 19.820680602408125 17.94736564944628 0 0 0
566 0 1 15.85801894328877 21.18329859535007 19.1004119856351 0 0 0
514 0 2 13.85476743374689 20.813634411038905 16.64534656519409 0 0 1
515 0 2 14.700112959413262 21.488127869968302 17.165390555040215 0 0 1
464 0 1 14.07768450057717 23.096677517468482 16.900004925006595 1 0 0
760 0 1 14.101507949915803 22.27506067232444 18.100367898155167 0 0 1
761 0 1 13.493475901221723 21.9255711358242 18.813218374647224 0 0 1
516 0 2 15.62796144204194 21.786672259137223 17.865362030480018 0 0 1
13 0 2 14.358276839499158 20.838506928435223 18.578529557876713 0 0 0
30 0 1 16.37104266776025 19.85203277740048 18.383509432839254 0 0 0
717 0 1 17.133253894338033 21.170114977215484 17.93012370536357 0 -1 1
718 0 1 17.709801137999243 21.23170594418183 17.115391643032126 0 -1 1
29 0 1 17.097099037332647 20.12737953011222 17.753421597652615 0 0 0
93 0 2 17.511138516282074 22.74482177463597 17.371742292850854 0 0 -1
768 0 2 18.122094694404083 21.90363842905279 18.305243889012136 -1 0 1
480 0 1 18.08090693432368 20.561088489463895 17.73156244126131 -1 0 0
392 0 2 16.478988290733575 20.715488085766864 16.895547453991274 0 1 0
527 0 2 19.27176381571998 19.83090683287411 17.818531175559116 0 0 0
78 0 1 21.077798165071695 21.513380570419574 18.209694300964006 0 -1 1
77 0 1 21.074057654843116 21.96984128749284 17.319964802601916 0 -1 1
769 0 2 18.796727150940278 22.032909894620936 17.32130009866958 -1 0 1
753 0 2 20.05747741139512 21.20564554749171 17.388117146182637 0 0 0
754 0 2 19.468345372418586 21.144325112660113 18.43174008735044 0 0 0
481 0 1 18.684942643838994 20.753141850159338 16.958102850344467 -1 0 0
76 0 1 20.96514827351043 22.283849613013505 16.376818588768717 0 -1 1
800 0 1 11.495365003875126 22.724289258889726 18.22077964112046 1 1 1
801 0 1 11.270232883514934 22.921482616788648 17.266621105219063 1 1 1
643 0 2 12.512788190274645 23.217209247497323 16.369866573400344 0 0 1
642 0 2 12.912284256554006 23.45348378704405 17.476460434834816 0 0 1
45 0 1 11.438318932917781 24.067484754536498 17.693970143527206 0 -1 0
46 0 1 12.148400752617732 24.356698077146994 17.052001072756074 0 -1 0
47 0 1 12.87570297073314 24.74908509038512 16.488917707007662 0 -1 0
124 0 2 10.957193648724829 24.427371945007607 16.444355668779618 0 0 0
190 0 1 14.153153254557875 23.124269870419297 19.10848563709237 2 0 -1
759 0 1 14.854660980404146 22.67723751900848 17.579766611871605 0 0 1
465 0 1 14.841806856709674 23.598665221076033 16.49490015594753 1 0 0
466 0 1 15.673932619865376 24.082286018640684 16.223482842855194 1 0 0
813 0 1 13.762309134558102 24.592584579592824 17.031434752861244 0 0 1
814 0 1 14.754110864407957 24.69497993724688 16.95503973719402 0 0 1
156 0 1 14.3796645788832 25.07838255738662 18.166994045589604 0 0 0
815 0 1 15.655995215966012 25.068498172886088 16.738051338431674 0 0 1
681 0 2 14.294722279519458 23.732178382814556 17.892298189678662 0 0 1
682 0 2 15.447451326206249 23.704438632897304 18.224620529518408 0 0 1
758 0 1 15.574730921488609 23.143318305742476 17.065696240111293 0 0 1
134 0 1 13.877239711279266 24.010431555612747 16.201686325625694 0 0 1
94 0 2 17.061278935329163 23.842357358939662 17.553499169428342 0 0 -1
95 0 2 16.3078520281123 24.762995446373502 17.71086691239927 0 0 -1
121 0 2 18.252380241039546 24.401602044265168 18.333152074372176 -1 0 0
771 0 1 18.40009923144615 25.08335487968108 27.670428297677887 0 0 0
757 0 1 16.361128846638174 23.59140904054086 16.640508323915995 0 0 1
772 0 1 18.442909624222054 24.35671100085267 16.73618374030982 0 0 1
816 0 1 16.25466046102754 25.650581227491003 27.80730701775673 0 0 0
696 0 2 20.30006560846082 22.432211976016866 18.182759956495836 0 -1 2
773 0 1 18.647330460266215 23.632739464651767 17.395024572048392 0 0 1
697 0 2 19.92041786734086 23.05506771566893 17.229917119673292 0 -1 2
122 0 2 19.39555889936502 24.297054337756055 17.98358202447524 -1 0 0
123 0 2 20.431659341362995 24.475462943115552 17.405093025079488 -1 0 0
471 0 2 19.19890974999567 25.419705717793903 17.027884108233796 0 -1 0
44 0 1 20.962115187961412 23.697908535560448 18.353034521405434 -1 -1 0
698 0 2 19.702051914048944 23.87664645444493 16.382975348949007 0 -1 2
879 0 2 13.104228388450586 25.777767677085947 18.009818944633942 0 0 1
783 0 2 11.884940420781199 25.54751798463353 17.016856910630747 1 0 1
880 0 2 12.926073402902446 26.54893129044536 17.10784765180368 0 0 1
832 0 1 13.237257064523924 27.855902895563613 17.46993021058154 0 0 1
657 0 2 12.148090773469496 27.52779736193827 17.93318201260833 0 0 1
144 0 1 11.220034128346406 26.742315362635484 18.27883776168148 0 0 0
881 0 2 12.483879452338515 27.33398363987672 16.315291549406783 0 0 1
146 0 1 11.261648009007324 26.585975429181474 16.29287770601309 0 0 0
145 0 1 11.158940308326635 26.63752982972332 17.28622781216365 0 0 0
784 0 2 11.436469497715043 25.530184674525046 18.12976122299007 1 0 1
155 0 1 14.119358288083898 25.602203452582458 17.355919882710456 0 0 0
96 0 2 15.386593422369172 25.519731280847388 17.847340002057603 0 0 -1
833 0 1 13.482253594404465 27.174615110564396 18.159721262499552 0 0 1
588 0 2 14.252332590362538 27.308596755051678 16.84597764595234 0 0 1
97 0 2 14.74892267984271 26.50783644654726 18.08612269468235 0 0 -1
834 0 1 13.779676203259598 26.536996636527704 18.870336307931247 0 0 1
300 0 1 15.602662925181855 27.94755650723805 17.32781322866842 -1 0 0
458 0 2 15.600075208057486 27.647016618656863 16.207753705792214 0 -1 1
149 0 2 14.79843932907788 25.679683349946096 27.796447117694743 0 0 -1
457 0 2 15.669762137235512 26.647287668353922 16.871101041342552 0 -1 1
448 0 2 17.50125673972767 25.159786065418402 16.97294513824983 -1 0 0
731 0 1 17.038007382569056 25.840254495525322 18.040433426835175 0 0 1
732 0 1 16.89321022498002 26.377675785106945 17.209649214465372 0 0 1
299 0 1 16.517280263210807 27.54402473919325 17.302797481154343 -1 0 0
298 0 1 17.491263105110693 27.328246421285197 17.371976502118343 -1 0 0
447 0 2 17.82072449793185 26.18438260948036 16.43616222303027 -1 0 0
733 0 1 16.809015578565056 27.058960234316316 16.482491988413454 0 0 1
297 0 1 18.4730830669657 27.139635857382963 17.393117636522508 -1 0 0
472 0 2 18.56551197226165 25.838233533103164 17.95719972730159 0 -1 0
366 0 1 20.73299144324475 25.583132632355543 16.75996991053424 0 0 0
367 0 1 20.29431418601608 25.659930759520606 17.655320545176703 0 0 0
574 0 2 19.83715968707607 26.690769383988354 16.301974791877917 0 0 1
573 0 2 19.188598896105034 27.665200255589955 16.56625145979991 0 0 1
491 0 1 20.427224509570202 27.201338104134557 17.214532913708986 -1 -1 1
296 0 1 19.43275981746656 26.976895907935738 17.622308739946355 -1 0 0
295 0 1 20.24976811901253 26.76073254342341 18.15686885743389 -1 0 0
581 0 1 18.93659508512934 27.86108775797088 18.115407596795748 0 0 1
368 0 1 19.65222634149632 25.946607296335472 18.366325901125002 0 0 0
582 0 1 19.816624560188433 27.621041255431493 18.52518762244779 0 0 1
116 0 1 12.50617835406989 30.443042482048615 17.98480161040323 0 0 -1
286 0 1 11.416767823955048 30.49356724411414 16.229867586116455 1 -1 0
656 0 2 11.514961811169066 28.199666060421492 17.166547478948097 0 0 1
831 0 1 12.694423820194949 28.369426106933957 16.805389336866433 0 0 1
655 0 2 10.961056315344859 29.157614639141144 16.70234673447781 0 0 1
208 0 2 12.915449258695693 28.767718524711803 18.243050975419663 0 0 0
285 0 1 11.477012021208973 30.143352820930538 17.164595189666237 1 -1 0
207 0 2 12.625593357083893 29.41803058935164 17.277098634268004 0 0 0
284 0 1 11.581517119156617 29.96571540124631 18.143126292091384 1 -1 0
206 0 2 12.48926320064016 30.137955021839986 16.326778447793 0 0 0
352 0 1 13.340115436567597 30.506064239081894 17.12488747144172 0 0 0
628 0 2 15.037311609904057 30.33855895861694 18.085647678668895 0 0 1
302 0 1 13.743786238145717 28.652180369796795 17.1285105791255 -1 0 0
301 0 1 14.689734203530978 28.338228882075725 17.209793359922955 -1 0 0
353 0 1 13.471506620119314 30.064746293524067 18.0125627829343 0 0 0
576 0 1 14.397076667720176 28.968769865762816 16.44603303242676 0 0 1
869 0 1 14.165368213795446 29.433657927282987 17.700934860176243 0 0 1
62 0 1 15.521300869444804 29.96212029099979 16.92359771281029 0 -1 0
61 0 1 15.30674055158742 29.21692813753288 17.55497919712227 0 -1 0
577 0 1 15.356727557595187 28.827779470878376 16.689334389921967 0 0 1
870 0 1 13.930289626279162 29.864681636174257 16.829761352335705 0 0 1
263 0 2 17.800583194656603 30.262618215330253 16.912791636692845 0 -1 0
264 0 2 18.138287262289037 29.40497451759726 17.68116091017466 0 -1 0
578 0 1 16.25399984056086 28.646052487028697 17.09165783122508 0 0 1
579 0 1 17.17327313111585 28.510793718256046 17.461287621830753 0 0 1
136 0 2 16.479548683439212 29.74282755821674 17.84284948037928 0 0 0
580 0 1 18.02171989435237 28.090832677894745 17.783416628464366 0 0 1
571 0 2 17.246686484440602 29.01762719675049 16.28690733960653 0 0 1
572 0 2 18.240809028034516 28.40110021141308 16.55450930652956 0 0 1
137 0 2 16.24716472039789 28.67435609287433 18.33717668711734 0 0 0
703 0 1 19.14369354178013 29.163909170814755 16.28258239306611 -1 -1 1
202 0 1 20.789085977451716 29.75168706880723 17.89363798648121 -1 0 0
865 0 2 19.383034110874256 30.526760518528505 16.701421856745206 0 0 1
492 0 1 20.475585784311733 27.93951957089379 16.541674087224685 -1 -1 1
701 0 1 20.568116078265867 28.48247068791261 17.49988434157144 -1 -1 1
864 0 2 19.58580148061278 29.753749648778143 17.596590888652234 0 0 1
702 0 1 19.909814929574722 28.864275078120215 16.85115111174465 -1 -1 1
863 0 2 19.774437312683254 28.825988214559906 18.33392776641533 0 0 1
271 0 1 13.02635266204345 18.824029369172386 18.558549643764156 1 0 0
487 0 2 12.189071906932368 18.146854433224338 20.182395760839885 0 0 0
486 0 2 12.93806544969388 19.026399638427126 19.85774142653021 0 0 0
361 0 2 11.672510585312802 19.654771902617735 19.258971826691837 1 0 0
270 0 1 12.123448204806706 18.550436990729676 18.890065667527022 1 0 0
232 0 1 12.89772887648147 17.398722602368302 19.434768549485632 1 0 0
100 0 1 11.442158850325297 19.21164246521263 21.13586391831614 0 0 1
99 0 1 11.397648743040927 18.213220672793863 21.170123523440356 0 0 1
554 0 1 13.655136081816675 18.171108481281806 19.02479509284761 1 0 0
485 0 2 13.619356110134408 19.789508865506196 19.230446710963378 0 0 0
194 0 2 14.785262557423628 18.235147294985666 19.582288000467628 0 1 0
193 0 2 13.963458393693724 17.791373107431834 20.33573879849145 0 1 0
34 0 1 13.429348666676052 18.859398068496922 20.846824040249352 0 0 0
33 0 1 14.095732913803374 19.164867277649854 20.166670474407113 0 0 0
32 0 1 14.766917569668948 19.508259305591796 19.509711095669772 0 0 0
7 0 1 15.847577273300995 17.850657760119518 20.37435727501041 0 0 -1
531 0 2 15.504188081335872 19.15302330843873 20.461045115991965 0 0 0
31 0 1 15.516786651060212 19.74653135132689 18.89252897276354 0 0 0
276 0 2 17.348568939679446 17.64439697777093 18.46881409731603 0 0 0
275 0 2 16.342424629652744 30.653167445808286 19.02755962604052 0 -1 0
530 0 2 16.371829455044647 18.94213779485266 19.65935195847158 0 0 0
504 0 2 17.98179162715985 17.766064996866653 19.84755994369196 0 0 0
529 0 2 17.29365687522085 19.028713749243682 18.895987240292584 0 0 0
855 0 1 17.657499212186444 18.964845505387455 20.2796774171853 0 1 0
8 0 1 16.762972833813976 17.528307057236365 20.133245159108746 0 0 -1
477 0 1 16.984078079112283 19.960473381961542 20.450371269961124 -1 0 0
277 0 2 18.517238868098627 17.902600178348777 18.382025261630872 0 0 0
278 0 2 19.612000284532826 18.370703557032744 18.531572296485425 0 0 0
362 0 2 10.98310150404505 18.87950486277866 19.86202638076406 1 0 0
503 0 2 18.726320020433334 18.69474126214091 19.695146629160917 0 0 0
269 0 1 11.201140846209189 18.168722518489346 18.950400760262458 1 0 0
268 0 1 20.46365541815559 17.86157179471136 19.173615092031156 0 0 0
502 0 2 19.544107164067146 19.566767182101987 19.591271680876623 0 0 0
363 0 2 20.327862532037827 18.33840639579542 20.522067983337223 0 0 0
364 0 2 19.345082561284542 17.743357248024292 20.868550765306935 0 0 0
360 0 2 12.339977866092331 20.260804410153906 18.467012610138234 1 0 0
764 0 1 12.0766219246164 19.833591163595024 20.36021805814201 0 0 1
763 0 1 12.667796087571382 20.51651952885421 19.931135523745255 0 0 1
646 0 1 13.485232864713087 21.509341580860404 20.61538279892256 0 1 0
500 0 2 11.137385001535636 21.102195299373612 19.43765611085714 1 0 0
37 0 2 12.25011619678491 21.8590005878991 20.19891334746156 1 -1 0
101 0 1 11.276075960728146 20.167623077291733 20.893993050004095 0 0 1
843 0 1 12.600482554236947 22.610398793948693 18.432866564211622 0 0 1
844 0 1 12.904116787358742 22.558895872856702 19.384258292586843 0 0 1
762 0 1 13.121903604776616 21.291213240131007 19.49109427420308 0 0 1
252 0 2 13.252491773284845 20.263613995998845 20.974083234650752 1 0 0
845 0 1 13.311867365665357 22.72365039645642 20.28235552436071 0 0 1
565 0 1 15.752588396814831 21.657698618889903 19.974376377625028 0 0 0
564 0 1 15.76464826090476 22.03235098152929 20.90145779047378 0 0 0
645 0 1 13.920858425181189 20.856519972184163 19.995667714848143 0 1 0
345 0 2 15.122952958439647 20.579840186409932 19.985181887628993 0 0 0
563 0 1 15.833126844491265 22.525264006183225 21.768825507561328 0 0 0
12 0 2 14.612252559310424 21.793345936172358 19.259535106116935 0 0 0
346 0 2 14.636791898604535 21.184460846894197 20.900643059079897 0 0 0
479 0 1 17.732028679269735 20.44718164268422 18.661776596933063 -1 0 0
517 0 2 16.144521707313327 22.335058821770794 18.79939742069073 0 0 1
478 0 1 17.328952271515078 20.19451368271645 19.541370485928763 -1 0 0
716 0 1 16.640256901336862 20.841099438252805 18.735532693672887 0 -1 1
715 0 1 16.335434535578198 20.428086880591376 19.593724482440585 0 -1 1
766 0 2 16.901522215148603 21.35087026006915 20.287796180662074 -1 0 1
767 0 2 17.551041650917146 21.543716890833327 19.29738236730208 -1 0 1
756 0 2 18.34093031015144 20.266353916500798 20.34300813372365 0 0 0
765 0 2 16.29157689969047 20.744286280363184 21.124462513588973 -1 0 1
560 0 2 18.391915470268234 21.885650205859434 20.70558495137603 0 0 0
774 0 1 18.96961497047773 23.0637257322393 18.151560402662625 0 0 1
102 0 1 11.096872857822973 21.123971357221993 20.66319884960777 0 0 1
695 0 2 20.32928842757268 22.11080386731256 19.338539507361027 0 -1 2
755 0 2 18.813874358642565 20.794072089245585 19.374595676204347 0 0 0
501 0 2 20.374396133659857 20.423434819337377 19.720651786258273 0 0 0
776 0 1 19.227987847250738 21.826951209094727 19.69612013174609 0 0 1
775 0 1 19.080869689521155 22.49419441950268 18.965959219279448 0 0 1
103 0 1 10.983761690202883 22.064992676958223 20.33784647383157 0 0 1
641 0 2 12.873026568368438 23.828676079535242 18.61561422006881 0 0 1
106 0 1 11.519626302214819 24.423185910054826 18.676526869014165 0 0 1
799 0 1 11.625859881419816 22.582335292773386 19.202008783368438 1 1 1
38 0 2 11.810795450743132 22.892392222408436 20.62210746017024 1 -1 0
188 0 1 13.205401237001707 23.804228823177958 20.7041446025344 2 0 -1
640 0 2 12.4767773801133 24.481568054608967 19.54119769708837 0 0 1
105 0 1 11.128671382551405 23.71419251912179 19.26344018701249 0 0 1
189 0 1 13.596524279615675 23.55693913925112 19.817664841762817 2 0 -1
639 0 2 12.202800400073714 25.12260579984707 20.517921836127464 0 0 1
878 0 2 13.521336808200104 25.361965420765003 19.055337516816955 0 0 1
157 0 1 14.62210830324738 24.415044414536673 18.874946365574413 0 0 0
11 0 2 14.57601259146442 22.59169559880482 20.15469564621777 0 0 0
158 0 1 14.998249902410613 23.883662069443815 19.633987174053313 0 0 0
877 0 2 13.900990209008828 24.707474364740378 19.986729303928204 0 0 1
159 0 1 15.541143082376518 23.50001795044114 20.381032509540432 0 0 0
533 0 1 17.25801624465226 23.007051531812948 18.47048232852358 0 0 1
534 0 1 18.198377261294645 23.158166877168746 18.775221217319448 0 0 1
217 0 1 15.774238438071384 24.495143474711426 20.284065944503624 0 1 -1
518 0 2 16.315415034090897 22.794304752521477 19.89478504666222 0 0 1
684 0 2 17.20762966528492 23.924412714028506 19.78816421383154 0 0 1
683 0 2 16.25561683542955 23.998718464897678 19.06143393407301 0 0 1
218 0 1 15.479164878546477 24.906390274395108 19.421627711619323 0 1 -1
729 0 1 17.813536448953222 25.020906972758766 19.685306373022943 0 0 1
685 0 2 18.34556078736024 23.767149231481035 20.135110235174466 0 0 1
730 0 1 17.36004906468285 25.43395575662507 18.895537885261092 0 0 1
216 0 1 15.931720228676458 24.204264171036176 21.22776827639766 0 1 -1
589 0 1 17.354575604233332 23.06547612581302 20.813796127912646 0 0 0
330 0 1 20.66335663707997 24.69590128209927 18.453013018661 0 0 0
104 0 1 21.093234680437643 22.94027763142319 19.860554242052356 -1 0 1
686 0 2 19.374641196130213 23.151024419278976 20.098038257742633 0 0 1
43 0 1 20.084052180590557 23.484858437057586 18.781532288315706 -1 -1 0
519 0 1 20.225507614195827 23.492914543019264 20.6987708222451 0 -1 0
535 0 1 19.069376390624043 23.572923916190604 19.038530053459496 0 0 1
329 0 1 19.778014204908793 25.010930697332842 18.794946723139972 0 0 0
536 0 1 19.834570052641027 24.123647639748736 19.371959029961033 0 0 1
537 0 1 20.607560934914076 24.704447926700038 19.62720121636942 0 0 1
520 0 1 19.810764987827035 24.367076927552937 20.446140166410956 0 -1 0
896 0 2 18.513057687759503 25.007931610341394 20.899595381484666 0 1 0
538 0 1 11.161578417310063 25.35731977042299 19.774255311044023 1 0 1
658 0 2 12.41333923552092 26.78122250126676 18.834435275867495 0 0 1
539 0 1 11.711912588006932 26.191353075922937 19.813100754895576 1 0 1
209 0 2 13.273558309469802 28.064491285384328 19.147049889694976 0 0 0
540 0 1 12.48408497474731 26.806907574359926 19.970673933548188 1 0 1
142 0 1 11.177419973412835 27.4819575905641 20.128718663019903 0 0 0
143 0 1 11.28134232125183 27.093723883594418 19.213043541397674 0 0 0
407 0 1 21.00615826844743 26.05404775228432 20.44207369835357 0 0 0
423 0 1 13.09115457001933 26.103557900966763 20.41707611218805 0 0 0
98 0 2 14.563228824048494 27.668363322268334 18.328383563151405 0 0 -1
726 0 2 15.662111162935275 25.70270509619229 20.274444996043687 0 -1 1
422 0 1 13.997055863031646 25.99158369367303 20.008672926011997 0 0 0
421 0 1 14.747211864267609 25.957719511628575 19.34828241309735 0 0 0
210 0 2 13.707311500163431 27.203081033826557 19.86106823999845 0 0 0
139 0 2 15.218038204492505 27.19921346196552 19.836264007809937 0 0 0
140 0 2 14.64119855889872 26.65609059024305 20.737520104797113 0 0 0
541 0 2 17.156980804534964 25.534828180516385 20.471096354703505 1 0 0
138 0 2 15.96846775960181 27.840978893691492 19.15436759544138 0 0 0
728 0 2 16.352936749936315 26.783093038116775 18.294055649108095 0 -1 1
473 0 2 17.906175651756865 26.61280668280512 18.593833276902895 0 -1 0
727 0 2 16.128263518127046 26.067085587079003 19.230455641065948 0 -1 1
327 0 1 18.215710316676834 25.968696194497777 19.576711781152756 0 0 0
326 0 1 17.445650873403526 26.54744635734356 19.84514417393441 0 0 0
325 0 1 16.678795177858944 27.164594975700215 20.021380993578507 0 0 0
474 0 2 17.41241922901609 27.60934622101432 19.044507880022508 0 -1 0
371 0 1 17.904378456666873 27.310139664865844 20.357277865357524 0 0 0
370 0 1 18.5331647577532 26.87073826927956 19.715758761818325 0 0 0
521 0 1 19.621382899394547 25.3150368579591 20.1901901220071 0 -1 0
328 0 1 19.03451864187602 25.486659056115123 19.26494838442114 0 0 0
420 0 2 20.353677349085277 26.01094774903903 19.396533155311726 0 0 0
522 0 1 19.318554248097204 26.263910282078136 20.279205049691278 0 -1 0
369 0 1 19.10793454653645 26.524724628457598 18.974203832793446 0 0 0
419 0 2 20.260926526732973 27.174233751011307 19.67610052073236 0 0 0
523 0 1 19.238130397664364 27.24473790490464 20.4566507287503 0 -1 0
488 0 2 11.287451404507369 17.354976349962012 20.183445434537497 0 0 0
115 0 1 12.80835036178134 29.955028446010303 18.803659110941425 0 0 -1
317 0 2 11.154755715190714 28.415227200388188 18.65921079554755 0 0 1
114 0 1 12.858893952627895 29.475290608624828 19.679610921254966 0 0 -1
319 0 2 12.142331139213299 28.050550135587613 20.770168777156155 0 0 1
231 0 1 11.966176220671125 30.571411271250412 19.11881919817314 1 -1 0
230 0 1 11.00787226422866 30.424829615162093 18.873540835206356 1 -1 0
318 0 2 11.847593871982777 28.22004894383697 19.619350249090562 0 0 1
283 0 1 11.784725301412072 29.652481167281778 19.07080226782438 1 -1 0
282 0 1 11.566001647829832 29.397476649391376 20.01267370598161 1 -1 0
113 0 1 13.195700871070574 29.1783536933661 20.573128993371494 0 0 -1
192 0 2 13.038949598223887 30.427657003309356 20.60554208981464 0 0 0
356 0 1 13.649928391152084 28.310801908352985 20.35577018991964 0 0 0
60 0 1 14.956561601210058 28.772294173144658 18.379394409629185 0 -1 0
354 0 1 13.774467294028417 29.469199951347214 18.756557142008177 0 0 0
58 0 1 14.560592724992084 28.17327851520294 20.23429534461698 0 -1 0
355 0 1 13.838411189881821 28.94417343347659 19.60523248120726 0 0 0
17 0 1 14.016970044142942 30.475081297375702 18.843260439166905 0 -1 0
59 0 1 14.701406890718914 28.393811546037412 19.269140356698077 0 -1 0
629 0 2 15.046804024396621 29.65476665206659 19.07171154992387 0 0 1
16 0 1 14.044297392191718 29.990450672809036 19.717545542303945 0 -1 0
630 0 2 15.430326829114872 29.08938277260178 20.058239076112415 0 0 1
15 0 1 14.262204028181294 29.485051787747246 20.55245967589036 0 -1 0
886 0 1 15.154708992768 30.32311416962404 20.69843838978023 0 0 0
324 0 1 16.084083227180415 27.809132563316076 20.501883278067595 0 0 0
885 0 1 16.06361913867541 30.23346950660254 20.291194997139065 0 0 0
225 0 1 16.423482357581477 29.503243402181194 19.23068572315146 0 -1 0
226 0 1 17.307556012429565 29.85947106242701 18.928170932763138 0 -1 0
475 0 2 17.16637269166662 28.474643410686706 19.838681255655125 0 -1 0
884 0 1 16.98301596718484 29.91312082375684 20.06298221587393 0 0 0
883 0 1 17.95373463827077 29.812920807607206 19.84467658448208 0 0 0
267 0 1 19.53284633789734 17.523460512174562 19.312412714456016 0 0 0
204 0 1 20.819625316038167 29.029740996236626 19.74863251280452 -1 0 0
227 0 1 18.29284734396904 29.999993454166063 18.830880110234535 0 -1 0
265 0 2 18.40744538446761 28.821042183367847 18.694356011465878 0 -1 0
203 0 1 20.900038399045563 29.39817768714368 18.82246062370744 -1 0 0
228 0 1 19.254817410267385 30.175689289477113 18.62172954987555 0 -1 0
418 0 2 20.121136204400564 28.128284756767464 20.390410532672142 0 0 0
266 0 2 18.89695338248032 28.12436517481541 19.53993909417524 0 -1 0
229 0 1 20.252261792572465 30.241269802403163 18.593543480179537 0 -1 0
489 0 2 20.435732772013896 30.18771119643482 19.877906476347626 -1 -1 0
490 0 2 19.305247134658103 29.804444331821347 19.755007762507432 -1 -1 0
524 0 1 19.023040053241047 28.13835811506702 20.85056965622508 0 -1 0
35 0 1 12.836569788056552 18.238544914690024 21.359793341763595 0 0 0
36 0 1 12.164081793772725 17.617050747686168 21.76166067398681 0 0 0
333 0 2 11.705416998104116 19.471694472208153 22.387068630599913 0 1 0
332 0 2 12.528517865076871 18.621264177591012 22.585226818567158 0 1 0
456 0 1 20.98325190762204 18.95532427806904 21.796418002838834 -1 0 0
455 0 1 11.385845657194336 18.270932851384885 22.22644036798568 0 0 0
454 0 1 11.848066946069334 17.59178495148444 22.796628729269948 0 0 0
860 0 1 13.528788790234536 19.39415601262965 22.8195214479794 0 1 0
6 0 1 15.041816247807116 18.086107148901487 20.917773984523166 0 0 -1
5 0 1 14.246290319876461 18.575715644583426 21.274713966317137 0 0 -1
219 0 2 14.989828815224126 30.612442413248544 21.90587322456558 0 0 0
4 0 1 13.568396698933569 19.156296493985753 21.72569244380866 0 0 -1
532 0 2 14.79118847386494 19.70860907274207 21.250311429243705 0 0 0
859 0 1 14.357427901746073 19.09160337006532 22.348549121808606 0 1 0
858 0 1 15.167467664577194 18.72747006610072 21.88894239345256 0 1 0
331 0 2 13.528605188730959 17.979691613990976 22.417297807868167 0 1 0
857 0 1 16.076616265892753 18.70061783595839 21.473347170428536 0 1 0
220 0 2 16.162485718247822 17.398356337138033 21.683277682265086 0 1 0
221 0 2 17.249718751594433 17.900105078400717 21.60477576615924 0 1 0
222 0 2 18.21652749758562 18.559530692332203 21.33938989842497 0 1 0
438 0 1 17.894734265675226 17.939278534830247 22.640736294574193 0 1 0
437 0 1 17.716705825013396 18.849863796889192 23.013742533805893 0 1 0
176 0 1 16.784901031697864 18.639739360944144 22.50503040710553 0 1 -1
175 0 1 16.41462212127597 19.309311771621747 23.14889039687196 0 1 -1
856 0 1 16.886386633242203 18.849780764387074 20.905884931810654 0 1 0
614 0 2 19.002597431267848 19.99246323569216 22.765155437974563 0 1 0
601 0 2 16.78516919055318 19.760742487225883 22.094991968849392 -1 1 0
602 0 2 17.887943547990222 19.972719335047522 21.67197856638785 -1 1 0
439 0 1 17.840959632853824 30.373404930749604 22.24855129091867 0 0 0
622 0 1 17.064586773413595 30.591796701817174 22.82692274969752 0 0 0
415 0 2 20.40816875165519 17.939042494649495 21.925590009922608 0 1 0
223 0 2 19.239358400509488 19.178599174966283 21.23663071105345 0 1 0
386 0 1 20.584993275510435 19.60628724449121 22.328428537263637 0 0 0
615 0 2 19.46505391483054 18.890084583154028 22.869508456622178 0 1 0
224 0 2 20.33176845397916 19.62196608496746 21.01289916443776 0 1 0
778 0 1 19.32785689983323 20.50472437134039 21.15008269631074 0 0 1
385 0 1 19.897407302593738 20.286763451459706 22.07511343650621 0 0 0
3 0 1 13.03827285627311 19.862281310080892 22.195300613501615 0 0 -1
647 0 1 12.955284991137395 22.189330373657153 21.12209881071909 0 1 0
334 0 2 11.178193590735695 20.545819036746632 22.296168948745485 0 1 0
251 0 2 12.346701497461854 20.91794553462317 21.411559932305423 1 0 0
2 0 1 12.408407650310451 20.56537944765454 22.525304522939763 0 0 -1
1 0 1 11.853473405796215 21.3285826797528 22.85630858394414 0 0 -1
250 0 2 11.72828531312993 21.892001065844017 21.74135452812527 1 0 0
348 0 2 12.996207359974697 22.018315421192636 22.383335955956873 0 0 0
349 0 2 12.323462587523915 22.846168940398258 22.93293995035684 0 0 0
562 0 1 15.614166726729518 22.734446366477144 22.721856639980984 0 0 0
347 0 2 13.91032635521658 21.5033418283603 21.800948618190326 0 0 0
599 0 2 14.529954879895032 20.363543631796205 22.55135645769947 -1 1 0
557 0 2 15.540498256013546 21.516989607818175 22.630171921904754 0 0 0
600 0 2 15.611834796976362 19.911208167400133 22.29656984596045 -1 1 0
556 0 2 14.52608139799275 21.87925591017884 23.159048105229306 0 0 0
435 0 1 17.117629347540536 20.733692379973164 23.287943328858823 0 1 0