LAMMPS (30 Mar 2026 - Development - patch_30Mar2026-2152-g107b880cf8-modified)
OMP_NUM_THREADS environment is not set. Defaulting to 1 thread.
  using 1 OpenMP thread(s) per MPI task
# Rhodopsin model

units           real
neigh_modify    delay 5 every 1
atom_style      full
bond_style      harmonic
angle_style     charmm
dihedral_style  charmm
improper_style  harmonic
pair_style      lj/charmm/coul/long 8.0 10.0
pair_modify     mix arithmetic
kspace_style    pppm 1e-4

read_data       data.rhodo
Reading data file ...
  orthogonal box = (-27.5 -38.5 -36.3646) to (27.5 38.5 36.3615)
  1 by 2 by 2 MPI processor grid
  reading atoms ...
  32000 atoms
  reading velocities ...
  32000 velocities
  scanning bonds ...
  4 = max bonds/atom
  scanning angles ...
  8 = max angles/atom
  scanning dihedrals ...
  18 = max dihedrals/atom
  scanning impropers ...
  2 = max impropers/atom
  orthogonal box = (-27.5 -38.5 -36.3646) to (27.5 38.5 36.3615)
  1 by 2 by 2 MPI processor grid
  reading bonds ...
  27723 bonds
  reading angles ...
  40467 angles
  reading dihedrals ...
  56829 dihedrals
  reading impropers ...
  1034 impropers
Finding 1-2 1-3 1-4 neighbors ...
  special bond factors lj:    0        0        0       
  special bond factors coul:  0        0        0       
     4 = max # of 1-2 neighbors
    12 = max # of 1-3 neighbors
    24 = max # of 1-4 neighbors
    26 = max # of special neighbors
  special bonds CPU = 0.004 seconds
  read_data CPU = 0.235 seconds

fix             1 all ilves 0.0001 100 50 m 1.0 12 15 16 a 232
fix             2 all npt temp 300.0 300.0 100.0                 z 0.0 0.0 1000.0 mtk no pchain 0 tchain 1

special_bonds   charmm

thermo          50
thermo_style    multi
timestep        2.0

run             200

CITE-CITE-CITE-CITE-CITE-CITE-CITE-CITE-CITE-CITE-CITE-CITE-CITE

Your simulation uses code contributions which should be cited:

- fix ilves command: doi:10.1021/acs.jctc.5c01376

@Article{LopezVillellas2025,
 author = {L{\'o}pez-Villellas, Lori{\'e}n and Mikkelsen, Carl Christian Kjelgaard and Galano-Frutos, Juan Jos{\'e} and Marco-Sola, Santiago and Alastruey-Bened{\'e}, Jes{\'u}s and Ib{\'a}{\~n}ez, Pablo and Echenique, Pablo and Moret{\'o}, Miquel and {De Rosa}, Maria Cristina and Garc{\'i}a-Risue{\~n}o, Pablo},
 title = {ILVES: Accurate and Efficient Bond Length and Angle Constraints in Molecular Dynamics},
 journal = {J.~Chem.\ Theory Comput.},
 volume = 21,
 pages = {8711--8719},
 year = 2025
}

CITE-CITE-CITE-CITE-CITE-CITE-CITE-CITE-CITE-CITE-CITE-CITE-CITE

PPPM initialization ...
  using 12-bit tables for long-range coulomb
  G vector (1/distance) = 0.24883488
  grid = 25 32 32
  stencil order = 5
  estimated absolute RMS force accuracy = 0.035547797
  estimated relative force accuracy = 0.00010705113
  using double precision FFTW3
  3d grid and FFT values/proc = 13230 6400
Generated 2278 of 2278 mixed pair_coeff terms from arithmetic mixing rule
Neighbor list info ...
  update: every = 1 steps, delay = 5 steps, check = yes
  max neighbors/atom: 2000, page size: 100000
  master list distance cutoff = 12
  ghost atom cutoff = 12
  binsize = 6, bins = 10 13 13
  1 neighbor lists, perpetual/occasional/extra = 1 0 0
  (1) pair lj/charmm/coul/long, perpetual
      attributes: half, newton on
      pair build: half/bin/newton
      stencil: half/bin/3d
      bin: standard
Fix ilves: constraining 27722 bond(s) and 4233 angle(s)
ILVES stats (type/ave/delta/count) on step 0 (up to 0 Newton iterations)
Bond:     1   1.51378   0.143006          20
Bond:     2   1.5291    0.177982         304
Bond:     3   1.51858   0.0941663         23
Bond:     4   1.33446   0.135166          20
Bond:     5   1.33199   0.11084           21
Bond:     6   1.35083   0.167761         327
Bond:     7   1.23039   0.128547         347
Bond:     8   1.40467   0.161635         309
Bond:     9   1.39492   0.0687233         10
Bond:    10   1.50709   0.118875          49
Bond:    11   1.37915   0.0653975          5
Bond:    12   1.07999   0.000176421      252
Bond:    13   1.36783   0.0734205          5
Bond:    14   1.41616   0.139738          18
Bond:    15   1.5115    0                  1
Bond:    16   1.52274   0.122585          49
Bond:    17   1.34961   0.0825534         27
Bond:    18   1.23835   0.0944274         27
Bond:    19   1.25585   0.116735          46
Bond:    20   1.34974   0.129405         198
Bond:    21   1.51071   0.190181         396
Bond:    22   1.1       0.000185329      396
Bond:    23   1.53264   0.183646         200
Bond:    24   1.22109   0.110353         200
Bond:    25   1.32437   0.173734         198
Bond:    26   1.67271   0.00066681         2
Bond:    27   1.54881   0.152828          20
Bond:    28   1.08      0.000136975       20
Bond:    29   1.45295   0.0786419         20
Bond:    30   1.5311    0.101561          20
Bond:    31   1.53912   0.112174          20
Bond:    32   1.111     0.000174163       80
Bond:    33   1.11099   0.000117405       40
Bond:    34   1.46655   0.105574          20
Bond:    35   1.34683   0.0539793          6
Bond:    36   1.50049   0.0885084          6
Bond:    37   1.08299   0.000101864        6
Bond:    38   1.37738   0.0542003         12
Bond:    39   1.06998   0.000121966        6
Bond:    40   1.31435   0.086906          12
Bond:    41   1.39955   0.0436076          5
Bond:    42   1.46023   0.0595102          5
Bond:    43   1.38674   0.0677264          5
Bond:    44   1.43147   0                  1
Bond:    45   1.38898   0                  1
Bond:    46   1.08099   0                  1
Bond:    47   1.31968   0                  1
Bond:    48   1.08101   0                  1
Bond:    49   1.48618   0                  1
Bond:    50   1.08101   0                  1
Bond:    51   1.38509   0                  1
Bond:    52   1.57321   0                  1
Bond:    53   1.43781   0                  1
Bond:    54   1.08098   0                  1
Bond:    55   1.081     0                  1
Bond:    56   1.2507    0                  1
Bond:    57   1.42501   0                  1
Bond:    58   1.54113   0                  1
Bond:    59   1.55957   0                  1
Bond:    60   1.5299    0                  1
Bond:    61   1.59922   0                  1
Bond:    62   1.341     0                  1
Bond:    63   1.081     0                  1
Bond:    64   1.42813   0                  1
Bond:    65   1.081     0                  1
Bond:    66   1.55923   0                  1
Bond:    67   1.53331   0.186003          80
Bond:    68   1.55376   0.18202          246
Bond:    69   1.54291   0.190143         196
Bond:    70   1.11099   0.000155271      108
Bond:    71   1.07999   0.000169132      305
Bond:    72   1.45916   0.161613         304
Bond:    73   1.50325   0                  1
Bond:    74   1.42191   0.111856          27
Bond:    75   1.54441   0.160403          94
Bond:    76   1.55156   0.109681          23
Bond:    77   1.52511   0.145646           5
Bond:    78   1.111     0.000179398      626
Bond:    79   1.07999   0.000149891       46
Bond:    80   1.4921    0.0755869          7
Bond:    81   1.40606   0                  1
Bond:    82   1.4545    0.0809122         23
Bond:    83   1.4543    0.109954          10
Bond:    84   1.43221   0.0789964         15
Bond:    85   1.80773   0.168603          24
Bond:    86   1.80504   0.0779085          2
Bond:    87   1.55188   0.0359605          2
Bond:    88   1.11099   0.000196405      717
Bond:    89   1.80592   0.141366          16
Bond:    90   1.55698   0.188815         198
Bond:    91   1.111     0.00016334        99
Bond:    92   1.44045   0.121544          99
Bond:    93   1.5398    0.239244        2501
Bond:    94   1.53292   0.165326         200
Bond:    95   1.111     0.000245892     6194
Bond:    96   1.08      0.000162783      198
Bond:    97   1.52021   0.166199          99
Bond:    98   1.43341   0.138443         297
Bond:    99   1.111     0.000204859      600
Bond:   100   1.08      0.000225048      891
Bond:   101   1.49581   0.193692         297
Bond:   102   0.996992  0.000218916      327
Bond:   103   0.999995  0.000173504       54
Bond:   104   1         0.00016159        12
Bond:   105   0.97599   3.19739e-05        5
Bond:   106   0.960002  0.000106691       60
Bond:   107   0.999991  0.000156041       35
Bond:   108   1.04001   0.000129251       33
Bond:   109   1.01301   0                  1
Bond:   110   1.32501   0.000100997        6
Bond:   112   0.957197  0.000272687     8466
Bond:   113   1.48065   0.10507          198
Bond:   114   1.5786    0.201813         198
Angle:  232   104.52    0.0237494       4233
Per MPI rank memory allocation (min/avg/max) = 52.05 | 52.18 | 52.5 Mbytes
------------ Step              0 ----- CPU =            0 (sec) -------------
TotEng   =    -30160.2616 KinEng   =     19178.7632 Temp     =       301.3996 
PotEng   =    -49339.0249 E_bond   =         0.0062 E_angle  =     10921.3742 
E_dihed  =      5211.7865 E_impro  =       213.5116 E_vdwl   =     -2307.8634 
E_coul   =    207025.8934 E_long   =   -270403.7333 Press    =    -89268.8970 
Volume   =    307995.0335
ILVES stats (type/ave/delta/count) on step 50 (up to 11 Newton iterations)
Bond:     1   1.49      6.73376e-05       20
Bond:     2   1.49      0.000176561      304
Bond:     3   1.49      6.97286e-05       23
Bond:     4   1.3       3.72416e-05       20
Bond:     5   1.365     1.28734e-05       21
Bond:     6   1.345     0.000119111      327
Bond:     7   1.22999   0.000184262      347
Bond:     8   1.375     9.87705e-05      309
Bond:     9   1.368     6.37386e-05       10
Bond:    10   1.49      2.95686e-05       49
Bond:    11   1.36499   6.62882e-06        5
Bond:    12   1.08      2.46134e-05      252
Bond:    13   1.37      8.24316e-06        5
Bond:    14   1.411     2.2263e-05        18
Bond:    15   1.522     0                  1
Bond:    16   1.522     2.74288e-05       49
Bond:    17   1.35999   3.07531e-05       27
Bond:    18   1.23      2.89254e-05       27
Bond:    19   1.26      1.16292e-05       46
Bond:    20   1.33999   2.12467e-05      198
Bond:    21   1.50199   2.4023e-05       396
Bond:    22   1.1       1.70659e-05      396
Bond:    23   1.52199   1.49218e-05      200
Bond:    24   1.22      1.19481e-05      200
Bond:    25   1.334     1.65528e-05      198
Bond:    26   1.818     1.59587e-06        2
Bond:    27   1.527     1.52472e-05       20
Bond:    28   1.08      3.29445e-05       20
Bond:    29   1.434     3.48981e-05       20
Bond:    30   1.53699   1.45375e-05       20
Bond:    31   1.537     1.69044e-05       20
Bond:    32   1.111     1.19737e-05       80
Bond:    33   1.11099   1.94446e-05       40
Bond:    34   1.45499   1.21038e-05       20
Bond:    35   1.36      9.32933e-06        6
Bond:    36   1.5       7.28442e-06        6
Bond:    37   1.08299   8.17015e-06        6
Bond:    38   1.36999   8.68051e-06       12
Bond:    39   1.06999   5.92583e-06        6
Bond:    40   1.32      1.23305e-05       12
Bond:    41   1.4       1.70233e-05        5
Bond:    42   1.43999   1.0035e-05         5
Bond:    43   1.37499   1.24961e-05        5
Bond:    44   1.44389   0                  1
Bond:    45   1.3462    0                  1
Bond:    46   1.081     0                  1
Bond:    47   1.3386    0                  1
Bond:    48   1.081     0                  1
Bond:    49   1.4545    0                  1
Bond:    50   1.08099   0                  1
Bond:    51   1.34551   0                  1
Bond:    52   1.493     0                  1
Bond:    53   1.45781   0                  1
Bond:    54   1.081     0                  1
Bond:    55   1.081     0                  1
Bond:    56   1.274     0                  1
Bond:    57   1.32849   0                  1
Bond:    58   1.51249   0                  1
Bond:    59   1.5125    0                  1
Bond:    60   1.48389   0                  1
Bond:    61   1.5344    0                  1
Bond:    62   1.3168    0                  1
Bond:    63   1.081     0                  1
Bond:    64   1.46839   0                  1
Bond:    65   1.081     0                  1
Bond:    66   1.4909    0                  1
Bond:    67   1.5       6.52873e-05       80
Bond:    68   1.538     4.45167e-05      246
Bond:    69   1.538     4.86079e-05      196
Bond:    70   1.11099   2.79213e-05      108
Bond:    71   1.08      3.48451e-05      305
Bond:    72   1.43      9.06339e-05      304
Bond:    73   1.48      0                  1
Bond:    74   1.42      1.30531e-05       27
Bond:    75   1.52999   1.9737e-05        94
Bond:    76   1.528     1.07999e-05       23
Bond:    77   1.51      1.14207e-05        5
Bond:    78   1.111     1.92698e-05      626
Bond:    79   1.08      2.65983e-05       46
Bond:    80   1.48999   1.34477e-05        7
Bond:    81   1.43      0                  1
Bond:    82   1.43      3.60412e-05       23
Bond:    83   1.48      1.33722e-05       10
Bond:    84   1.42      2.00184e-05       15
Bond:    85   1.818     2.42905e-05       24
Bond:    86   1.816     8.35628e-06        2
Bond:    87   1.52999   1.07936e-05        2
Bond:    88   1.111     1.4815e-05       717
Bond:    89   1.81599   1.54044e-05       16
Bond:    90   1.53799   1.50345e-05      198
Bond:    91   1.111     1.07888e-05       99
Bond:    92   1.42999   1.72023e-05       99
Bond:    93   1.52999   2.43414e-05     2501
Bond:    94   1.52799   1.99677e-05      200
Bond:    95   1.111     2.24254e-05     6194
Bond:    96   1.08      1.53508e-05      198
Bond:    97   1.50999   1.46384e-05       99
Bond:    98   1.42999   1.40531e-05      297
Bond:    99   1.111     1.61136e-05      600
Bond:   100   1.08      1.54359e-05      891
Bond:   101   1.51      1.48477e-05      297
Bond:   102   0.996993  2.50229e-05      327
Bond:   103   0.999996  1.17277e-05       54
Bond:   104   0.999996  9.05437e-06       12
Bond:   105   0.975993  9.94953e-06        5
Bond:   106   0.959995  1.35148e-05       60
Bond:   107   0.999995  1.14429e-05       35
Bond:   108   1.04      1.27886e-05       33
Bond:   109   1.013     0                  1
Bond:   110   1.32499   1.2014e-05         6
Bond:   112   0.957196  2.16165e-05     8466
Bond:   113   1.48      1.44489e-05      198
Bond:   114   1.59999   1.55647e-05      198
Angle:  232   104.52    0.00174924      4233
------------ Step             50 ----- CPU =     2.240224 (sec) -------------
TotEng   =    -29132.6704 KinEng   =     19232.5523 Temp     =       302.2449 
PotEng   =    -48365.2227 E_bond   =         0.0762 E_angle  =     11106.0736 
E_dihed  =      5302.3672 E_impro  =       238.4221 E_vdwl   =     -1511.6448 
E_coul   =    206910.4412 E_long   =   -270410.9582 Press    =      -341.0097 
Volume   =    307577.9739
ILVES stats (type/ave/delta/count) on step 100 (up to 8 Newton iterations)
Bond:     1   1.48999   2.21635e-05       20
Bond:     2   1.48999   8.24697e-05      304
Bond:     3   1.48999   3.04277e-05       23
Bond:     4   1.3       1.66112e-05       20
Bond:     5   1.36499   2.70198e-05       21
Bond:     6   1.345     6.13757e-05      327
Bond:     7   1.22999   8.0459e-05       347
Bond:     8   1.37499   5.24121e-05      309
Bond:     9   1.36799   3.10182e-05       10
Bond:    10   1.49      6.51738e-05       49
Bond:    11   1.36499   9.49033e-06        5
Bond:    12   1.07999   3.22806e-05      252
Bond:    13   1.37      9.71929e-06        5
Bond:    14   1.41099   2.40659e-05       18
Bond:    15   1.522     0                  1
Bond:    16   1.52199   2.31741e-05       49
Bond:    17   1.35999   2.67078e-05       27
Bond:    18   1.22999   1.80668e-05       27
Bond:    19   1.25999   1.7801e-05        46
Bond:    20   1.33999   2.19413e-05      198
Bond:    21   1.50199   2.34609e-05      396
Bond:    22   1.09999   2.77907e-05      396
Bond:    23   1.52199   2.31112e-05      200
Bond:    24   1.22      1.77078e-05      200
Bond:    25   1.334     2.5259e-05       198
Bond:    26   1.818     3.81084e-07        2
Bond:    27   1.52699   2.43271e-05       20
Bond:    28   1.07999   1.59518e-05       20
Bond:    29   1.43399   2.06232e-05       20
Bond:    30   1.53699   2.26487e-05       20
Bond:    31   1.53699   2.47729e-05       20
Bond:    32   1.11099   1.75045e-05       80
Bond:    33   1.11099   1.95206e-05       40
Bond:    34   1.45499   1.88673e-05       20
Bond:    35   1.35999   1.50571e-05        6
Bond:    36   1.5       9.32547e-06        6
Bond:    37   1.08299   1.32837e-05        6
Bond:    38   1.36999   1.53629e-05       12
Bond:    39   1.06999   1.26407e-05        6
Bond:    40   1.31999   1.95223e-05       12
Bond:    41   1.39999   2.29369e-05        5
Bond:    42   1.43999   1.52359e-05        5
Bond:    43   1.37499   1.72548e-05        5
Bond:    44   1.44389   0                  1
Bond:    45   1.34619   0                  1
Bond:    46   1.081     0                  1
Bond:    47   1.3386    0                  1
Bond:    48   1.081     0                  1
Bond:    49   1.4545    0                  1
Bond:    50   1.08099   0                  1
Bond:    51   1.3455    0                  1
Bond:    52   1.493     0                  1
Bond:    53   1.4578    0                  1
Bond:    54   1.081     0                  1
Bond:    55   1.081     0                  1
Bond:    56   1.274     0                  1
Bond:    57   1.32849   0                  1
Bond:    58   1.51248   0                  1
Bond:    59   1.5125    0                  1
Bond:    60   1.48388   0                  1
Bond:    61   1.5344    0                  1
Bond:    62   1.31679   0                  1
Bond:    63   1.081     0                  1
Bond:    64   1.46839   0                  1
Bond:    65   1.081     0                  1
Bond:    66   1.4909    0                  1
Bond:    67   1.49999   2.65777e-05       80
Bond:    68   1.53799   4.72248e-05      246
Bond:    69   1.53799   4.04809e-05      196
Bond:    70   1.11099   1.90649e-05      108
Bond:    71   1.07999   5.27129e-05      305
Bond:    72   1.42999   7.63735e-05      304
Bond:    73   1.47999   0                  1
Bond:    74   1.41999   2.07934e-05       27
Bond:    75   1.52999   2.22832e-05       94
Bond:    76   1.528     2.1703e-05        23
Bond:    77   1.51      1.62922e-05        5
Bond:    78   1.11099   2.13508e-05      626
Bond:    79   1.07999   1.70957e-05       46
Bond:    80   1.48999   1.6585e-05         7
Bond:    81   1.43      0                  1
Bond:    82   1.42999   2.21525e-05       23
Bond:    83   1.47999   2.06638e-05       10
Bond:    84   1.41999   1.77971e-05       15
Bond:    85   1.81799   2.7276e-05        24
Bond:    86   1.81599   1.83591e-05        2
Bond:    87   1.52999   1.82422e-05        2
Bond:    88   1.11099   2.1002e-05       717
Bond:    89   1.81599   2.31129e-05       16
Bond:    90   1.53799   2.32939e-05      198
Bond:    91   1.111     1.5393e-05        99
Bond:    92   1.42999   2.13966e-05       99
Bond:    93   1.52999   2.90794e-05     2501
Bond:    94   1.52799   2.3015e-05       200
Bond:    95   1.11099   2.42502e-05     6194
Bond:    96   1.07999   1.78965e-05      198
Bond:    97   1.50999   2.26873e-05       99
Bond:    98   1.42999   2.16619e-05      297
Bond:    99   1.11099   1.87828e-05      600
Bond:   100   1.07999   2.02072e-05      891
Bond:   101   1.50999   2.24999e-05      297
Bond:   102   0.99699   3.20444e-05      327
Bond:   103   0.999994  1.79624e-05       54
Bond:   104   0.999994  1.46625e-05       12
Bond:   105   0.975992  1.00763e-05        5
Bond:   106   0.959994  2.05612e-05       60
Bond:   107   0.999994  1.52521e-05       35
Bond:   108   1.03999   1.78384e-05       33
Bond:   109   1.013     0                  1
Bond:   110   1.32499   1.3321e-05         6
Bond:   112   0.957194  2.10499e-05     8466
Bond:   113   1.47999   2.21102e-05      198
Bond:   114   1.59999   2.44648e-05      198
Angle:  232   104.52    0.00206607      4233
------------ Step            100 ----- CPU =     4.579209 (sec) -------------
TotEng   =    -30495.9103 KinEng   =     18644.6661 Temp     =       293.0061 
PotEng   =    -49140.5764 E_bond   =         0.0234 E_angle  =     10843.0596 
E_dihed  =      5211.3455 E_impro  =       226.1544 E_vdwl   =     -1385.7044 
E_coul   =    206375.2578 E_long   =   -270410.7127 Press    =       259.4953 
Volume   =    307324.2475
ILVES stats (type/ave/delta/count) on step 150 (up to 8 Newton iterations)
Bond:     1   1.49      3.25549e-06       20
Bond:     2   1.49      7.34918e-05      304
Bond:     3   1.49      6.30214e-06       23
Bond:     4   1.3       2.62839e-06       20
Bond:     5   1.365     3.07011e-06       21
Bond:     6   1.345     3.45758e-05      327
Bond:     7   1.23      3.61796e-05      347
Bond:     8   1.375     2.28099e-05      309
Bond:     9   1.368     3.6411e-06        10
Bond:    10   1.49      9.09587e-06       49
Bond:    11   1.365     1.39061e-06        5
Bond:    12   1.08      4.59388e-06      252
Bond:    13   1.37      1.41035e-06        5
Bond:    14   1.411     6.62012e-06       18
Bond:    15   1.522     0                  1
Bond:    16   1.522     4.38796e-06       49
Bond:    17   1.36      1.16043e-05       27
Bond:    18   1.23      5.16993e-06       27
Bond:    19   1.26      2.8517e-06        46
Bond:    20   1.34      5.6499e-06       198
Bond:    21   1.502     3.51143e-06      396
Bond:    22   1.1       4.11188e-06      396
Bond:    23   1.522     3.49366e-06      200
Bond:    24   1.22      4.85899e-06      200
Bond:    25   1.334     6.04098e-06      198
Bond:    26   1.818     3.05171e-08        2
Bond:    27   1.527     2.95909e-06       20
Bond:    28   1.08      2.22359e-06       20
Bond:    29   1.434     3.39024e-06       20
Bond:    30   1.537     3.31354e-06       20
Bond:    31   1.537     3.47991e-06       20
Bond:    32   1.111     2.53041e-06       80
Bond:    33   1.111     2.24987e-06       40
Bond:    34   1.455     3.06412e-06       20
Bond:    35   1.36      2.27174e-06        6
Bond:    36   1.5       1.74494e-06        6
Bond:    37   1.083     1.03819e-06        6
Bond:    38   1.37      1.9743e-06        12
Bond:    39   1.07      1.33632e-06        6
Bond:    40   1.32      2.95855e-06       12
Bond:    41   1.4       3.18561e-06        5
Bond:    42   1.44      2.44792e-06        5
Bond:    43   1.375     2.56525e-06        5
Bond:    44   1.4439    0                  1
Bond:    45   1.3462    0                  1
Bond:    46   1.081     0                  1
Bond:    47   1.3386    0                  1
Bond:    48   1.081     0                  1
Bond:    49   1.4545    0                  1
Bond:    50   1.081     0                  1
Bond:    51   1.3455    0                  1
Bond:    52   1.493     0                  1
Bond:    53   1.4578    0                  1
Bond:    54   1.081     0                  1
Bond:    55   1.081     0                  1
Bond:    56   1.274     0                  1
Bond:    57   1.3285    0                  1
Bond:    58   1.5125    0                  1
Bond:    59   1.5125    0                  1
Bond:    60   1.4839    0                  1
Bond:    61   1.5344    0                  1
Bond:    62   1.3168    0                  1
Bond:    63   1.081     0                  1
Bond:    64   1.4684    0                  1
Bond:    65   1.081     0                  1
Bond:    66   1.4909    0                  1
Bond:    67   1.5       1.6973e-05        80
Bond:    68   1.538     8.37262e-06      246
Bond:    69   1.538     7.07667e-06      196
Bond:    70   1.111     4.39731e-06      108
Bond:    71   1.08      1.47656e-05      305
Bond:    72   1.43      2.5379e-05       304
Bond:    73   1.48      0                  1
Bond:    74   1.42      3.21677e-06       27
Bond:    75   1.53      7.8651e-06        94
Bond:    76   1.528     2.83857e-06       23
Bond:    77   1.51      2.26743e-06        5
Bond:    78   1.111     3.06844e-06      626
Bond:    79   1.08      8.09744e-06       46
Bond:    80   1.49      2.43651e-06        7
Bond:    81   1.43      0                  1
Bond:    82   1.43      1.16068e-05       23
Bond:    83   1.48      3.08241e-06       10
Bond:    84   1.42      2.10262e-06       15
Bond:    85   1.818     4.16615e-06       24
Bond:    86   1.816     1.84893e-06        2
Bond:    87   1.53      2.79084e-06        2
Bond:    88   1.111     2.56953e-06      717
Bond:    89   1.816     3.89953e-06       16
Bond:    90   1.538     3.5134e-06       198
Bond:    91   1.111     2.2655e-06        99
Bond:    92   1.43      3.25063e-06       99
Bond:    93   1.53      5.82622e-06     2501
Bond:    94   1.528     3.51519e-06      200
Bond:    95   1.111     3.83925e-06     6194
Bond:    96   1.08      2.45606e-06      198
Bond:    97   1.51      3.44454e-06       99
Bond:    98   1.43      3.27838e-06      297
Bond:    99   1.111     2.7389e-06       600
Bond:   100   1.08      2.54029e-06      891
Bond:   101   1.51      3.43919e-06      297
Bond:   102   0.997001  3.5224e-06       327
Bond:   103   1         2.29168e-06       54
Bond:   104   1         1.96608e-06       12
Bond:   105   0.976001  1.53809e-06        5
Bond:   106   0.960001  2.2208e-06        60
Bond:   107   1         2.30355e-06       35
Bond:   108   1.04      2.34394e-06       33
Bond:   109   1.013     0                  1
Bond:   110   1.325     2.43775e-06        6
Bond:   112   0.957201  2.37778e-06     8466
Bond:   113   1.48      3.36012e-06      198
Bond:   114   1.6       3.65909e-06      198
Angle:  232   104.52    0.000258153     4233
------------ Step            150 ----- CPU =     6.868633 (sec) -------------
TotEng   =    -31111.2708 KinEng   =     18295.4660 Temp     =       287.5183 
PotEng   =    -49406.7367 E_bond   =         0.0087 E_angle  =     10629.6746 
E_dihed  =      5249.0849 E_impro  =       220.5262 E_vdwl   =     -1458.4153 
E_coul   =    206358.3518 E_long   =   -270405.9676 Press    =      -205.8097 
Volume   =    307296.6099
ILVES stats (type/ave/delta/count) on step 200 (up to 8 Newton iterations)
Bond:     1   1.49      9.00178e-06       20
Bond:     2   1.49      4.23253e-05      304
Bond:     3   1.49      3.35588e-05       23
Bond:     4   1.3       6.87696e-06       20
Bond:     5   1.365     8.38394e-06       21
Bond:     6   1.345     5.07546e-05      327
Bond:     7   1.23      6.9213e-05       347
Bond:     8   1.375     3.42256e-05      309
Bond:     9   1.368     1.13171e-05       10
Bond:    10   1.49      2.97674e-05       49
Bond:    11   1.36499   4.77936e-06        5
Bond:    12   1.08      1.25249e-05      252
Bond:    13   1.37      4.26161e-06        5
Bond:    14   1.411     1.26934e-05       18
Bond:    15   1.522     0                  1
Bond:    16   1.522     1.66708e-05       49
Bond:    17   1.36      1.97293e-05       27
Bond:    18   1.23      1.45538e-05       27
Bond:    19   1.26      7.83042e-06       46
Bond:    20   1.34      3.95435e-05      198
Bond:    21   1.502     4.9363e-05       396
Bond:    22   1.1       3.27566e-05      396
Bond:    23   1.522     1.44343e-05      200
Bond:    24   1.22      1.83032e-05      200
Bond:    25   1.334     3.32717e-05      198
Bond:    26   1.818     8.47701e-07        2
Bond:    27   1.527     9.90515e-06       20
Bond:    28   1.08      1.07722e-05       20
Bond:    29   1.434     8.4536e-06        20
Bond:    30   1.537     9.66556e-06       20
Bond:    31   1.537     1.04637e-05       20
Bond:    32   1.111     1.05487e-05       80
Bond:    33   1.111     7.18146e-06       40
Bond:    34   1.455     7.82888e-06       20
Bond:    35   1.36      5.7233e-06         6
Bond:    36   1.5       4.50155e-06        6
Bond:    37   1.083     6.34202e-06        6
Bond:    38   1.37      6.92984e-06       12
Bond:    39   1.07      3.79661e-06        6
Bond:    40   1.32      8.16362e-06       12
Bond:    41   1.4       1.07748e-05        5
Bond:    42   1.44      6.82002e-06        5
Bond:    43   1.37499   7.0102e-06         5
Bond:    44   1.44389   0                  1
Bond:    45   1.3462    0                  1
Bond:    46   1.081     0                  1
Bond:    47   1.3386    0                  1
Bond:    48   1.081     0                  1
Bond:    49   1.4545    0                  1
Bond:    50   1.081     0                  1
Bond:    51   1.3455    0                  1
Bond:    52   1.493     0                  1
Bond:    53   1.4578    0                  1
Bond:    54   1.081     0                  1
Bond:    55   1.081     0                  1
Bond:    56   1.274     0                  1
Bond:    57   1.32849   0                  1
Bond:    58   1.51249   0                  1
Bond:    59   1.5125    0                  1
Bond:    60   1.48389   0                  1
Bond:    61   1.5344    0                  1
Bond:    62   1.3168    0                  1
Bond:    63   1.081     0                  1
Bond:    64   1.46839   0                  1
Bond:    65   1.081     0                  1
Bond:    66   1.4909    0                  1
Bond:    67   1.5       6.18286e-05       80
Bond:    68   1.538     2.78833e-05      246
Bond:    69   1.538     1.5456e-05       196
Bond:    70   1.111     1.77128e-05      108
Bond:    71   1.08      3.50353e-05      305
Bond:    72   1.43      2.79616e-05      304
Bond:    73   1.48      0                  1
Bond:    74   1.42      8.63349e-06       27
Bond:    75   1.53      9.48426e-06       94
Bond:    76   1.528     9.13783e-06       23
Bond:    77   1.51      6.92766e-06        5
Bond:    78   1.111     1.57398e-05      626
Bond:    79   1.08      8.26074e-06       46
Bond:    80   1.49      7.21331e-06        7
Bond:    81   1.43      0                  1
Bond:    82   1.43      7.98905e-06       23
Bond:    83   1.48      7.99213e-06       10
Bond:    84   1.42      7.393e-06         15
Bond:    85   1.818     1.12247e-05       24
Bond:    86   1.816     5.25324e-06        2
Bond:    87   1.53      6.86797e-06        2
Bond:    88   1.111     1.39422e-05      717
Bond:    89   1.816     9.0875e-06        16
Bond:    90   1.538     1.00076e-05      198
Bond:    91   1.111     1.07237e-05       99
Bond:    92   1.43      1.12669e-05       99
Bond:    93   1.53      2.0649e-05      2501
Bond:    94   1.528     1.09648e-05      200
Bond:    95   1.111     1.55937e-05     6194
Bond:    96   1.08      1.22444e-05      198
Bond:    97   1.51      9.54684e-06       99
Bond:    98   1.43      9.11791e-06      297
Bond:    99   1.111     1.37579e-05      600
Bond:   100   1.08      1.39806e-05      891
Bond:   101   1.51      9.70377e-06      297
Bond:   102   0.996998  1.53624e-05      327
Bond:   103   0.999999  9.33682e-06       54
Bond:   104   0.999999  7.3575e-06        12
Bond:   105   0.975998  4.89628e-06        5
Bond:   106   0.959999  8.20825e-06       60
Bond:   107   0.999999  8.95854e-06       35
Bond:   108   1.04      1.04902e-05       33
Bond:   109   1.013     0                  1
Bond:   110   1.325     5.84397e-06        6
Bond:   112   0.957199  1.63925e-05     8466
Bond:   113   1.48      9.11815e-06      198
Bond:   114   1.6       1.01516e-05      198
Angle:  232   104.52    0.00142913      4233
------------ Step            200 ----- CPU =     9.234323 (sec) -------------
TotEng   =    -30467.9709 KinEng   =     18827.1136 Temp     =       295.8733 
PotEng   =    -49295.0845 E_bond   =         0.0241 E_angle  =     10720.5026 
E_dihed  =      5197.8904 E_impro  =       233.7276 E_vdwl   =     -1525.9716 
E_coul   =    206485.0317 E_long   =   -270406.2892 Press    =       154.9264 
Volume   =    307203.7853
Loop time of 9.23436 on 4 procs for 200 steps with 32000 atoms

Performance: 3.743 ns/day, 6.413 hours/ns, 21.658 timesteps/s, 693.063 katom-step/s
99.2% CPU use with 4 MPI tasks x 1 OpenMP threads

MPI task timing breakdown:
Section |  min time  |  avg time  |  max time  |%varavg| %total
---------------------------------------------------------------
Pair    | 6.0076     | 6.1211     | 6.3462     |   5.4 | 66.29
Bond    | 0.18559    | 0.19238    | 0.20625    |   1.9 |  2.08
Kspace  | 0.37716    | 0.59974    | 0.69936    |  16.8 |  6.49
Neigh   | 1.0865     | 1.0872     | 1.0879     |   0.1 | 11.77
Comm    | 0.067995   | 0.069329   | 0.069947   |   0.3 |  0.75
Output  | 0.00029498 | 0.00031439 | 0.00035091 |   0.0 |  0.00
Modify  | 1.1475     | 1.1485     | 1.15       |   0.1 | 12.44
Other   |            | 0.01587    |            |       |  0.17

Nlocal:           8000 ave        8106 max        7957 min
Histogram: 2 1 0 0 0 0 0 0 0 1
Nghost:        22724.5 ave       22735 max       22718 min
Histogram: 1 1 0 1 0 0 0 0 0 1
Neighs:    3.01642e+06 ave 3.08481e+06 max 2.98656e+06 min
Histogram: 2 1 0 0 0 0 0 0 0 1

Total # of neighbors = 12065679
Ave neighs/atom = 377.05247
Ave special neighs/atom = 7.431875
Neighbor list builds = 22
Dangerous builds = 0
Total wall time: 0:00:09
