LAMMPS (30 Mar 2026 - Development - patch_30Mar2026-2152-g107b880cf8-modified)
OMP_NUM_THREADS environment is not set. Defaulting to 1 thread.
  using 1 OpenMP thread(s) per MPI task
# Rhodopsin model

units           real
neigh_modify    delay 5 every 1
atom_style      full
bond_style      harmonic
angle_style     charmm
dihedral_style  charmm
improper_style  harmonic
pair_style      lj/charmm/coul/long 8.0 10.0
pair_modify     mix arithmetic
kspace_style    pppm 1e-4

read_data       data.rhodo
Reading data file ...
  orthogonal box = (-27.5 -38.5 -36.3646) to (27.5 38.5 36.3615)
  1 by 1 by 1 MPI processor grid
  reading atoms ...
  32000 atoms
  reading velocities ...
  32000 velocities
  scanning bonds ...
  4 = max bonds/atom
  scanning angles ...
  8 = max angles/atom
  scanning dihedrals ...
  18 = max dihedrals/atom
  scanning impropers ...
  2 = max impropers/atom
  orthogonal box = (-27.5 -38.5 -36.3646) to (27.5 38.5 36.3615)
  1 by 1 by 1 MPI processor grid
  reading bonds ...
  27723 bonds
  reading angles ...
  40467 angles
  reading dihedrals ...
  56829 dihedrals
  reading impropers ...
  1034 impropers
Finding 1-2 1-3 1-4 neighbors ...
  special bond factors lj:    0        0        0       
  special bond factors coul:  0        0        0       
     4 = max # of 1-2 neighbors
    12 = max # of 1-3 neighbors
    24 = max # of 1-4 neighbors
    26 = max # of special neighbors
  special bonds CPU = 0.009 seconds
  read_data CPU = 0.236 seconds

fix             1 all ilves 0.0001 100 50 m 1.0 12 15 16 a 232
fix             2 all npt temp 300.0 300.0 100.0                 z 0.0 0.0 1000.0 mtk no pchain 0 tchain 1

special_bonds   charmm

thermo          50
thermo_style    multi
timestep        2.0

run             200

CITE-CITE-CITE-CITE-CITE-CITE-CITE-CITE-CITE-CITE-CITE-CITE-CITE

Your simulation uses code contributions which should be cited:

- fix ilves command: doi:10.1021/acs.jctc.5c01376

@Article{LopezVillellas2025,
 author = {L{\'o}pez-Villellas, Lori{\'e}n and Mikkelsen, Carl Christian Kjelgaard and Galano-Frutos, Juan Jos{\'e} and Marco-Sola, Santiago and Alastruey-Bened{\'e}, Jes{\'u}s and Ib{\'a}{\~n}ez, Pablo and Echenique, Pablo and Moret{\'o}, Miquel and {De Rosa}, Maria Cristina and Garc{\'i}a-Risue{\~n}o, Pablo},
 title = {ILVES: Accurate and Efficient Bond Length and Angle Constraints in Molecular Dynamics},
 journal = {J.~Chem.\ Theory Comput.},
 volume = 21,
 pages = {8711--8719},
 year = 2025
}

CITE-CITE-CITE-CITE-CITE-CITE-CITE-CITE-CITE-CITE-CITE-CITE-CITE

PPPM initialization ...
  using 12-bit tables for long-range coulomb
  G vector (1/distance) = 0.24883488
  grid = 25 32 32
  stencil order = 5
  estimated absolute RMS force accuracy = 0.035547797
  estimated relative force accuracy = 0.00010705113
  using double precision FFTW3
  3d grid and FFT values/proc = 41070 25600
Generated 2278 of 2278 mixed pair_coeff terms from arithmetic mixing rule
Neighbor list info ...
  update: every = 1 steps, delay = 5 steps, check = yes
  max neighbors/atom: 2000, page size: 100000
  master list distance cutoff = 12
  ghost atom cutoff = 12
  binsize = 6, bins = 10 13 13
  1 neighbor lists, perpetual/occasional/extra = 1 0 0
  (1) pair lj/charmm/coul/long, perpetual
      attributes: half, newton on
      pair build: half/bin/newton
      stencil: half/bin/3d
      bin: standard
Fix ilves: constraining 27722 bond(s) and 4233 angle(s)
ILVES stats (type/ave/delta/count) on step 0 (up to 0 Newton iterations)
Bond:     1   1.51378   0.143006          20
Bond:     2   1.5291    0.177982         304
Bond:     3   1.51858   0.0941663         23
Bond:     4   1.33446   0.135166          20
Bond:     5   1.33199   0.11084           21
Bond:     6   1.35083   0.167761         327
Bond:     7   1.23039   0.128547         347
Bond:     8   1.40467   0.161635         309
Bond:     9   1.39492   0.0687233         10
Bond:    10   1.50709   0.118875          49
Bond:    11   1.37915   0.0653975          5
Bond:    12   1.07999   0.000176421      252
Bond:    13   1.36783   0.0734205          5
Bond:    14   1.41616   0.139738          18
Bond:    15   1.5115    0                  1
Bond:    16   1.52274   0.122585          49
Bond:    17   1.34961   0.0825534         27
Bond:    18   1.23835   0.0944274         27
Bond:    19   1.25585   0.116735          46
Bond:    20   1.34974   0.129405         198
Bond:    21   1.51071   0.190181         396
Bond:    22   1.1       0.000185329      396
Bond:    23   1.53264   0.183646         200
Bond:    24   1.22109   0.110353         200
Bond:    25   1.32437   0.173734         198
Bond:    26   1.67271   0.00066681         2
Bond:    27   1.54881   0.152828          20
Bond:    28   1.08      0.000136975       20
Bond:    29   1.45295   0.0786419         20
Bond:    30   1.5311    0.101561          20
Bond:    31   1.53912   0.112174          20
Bond:    32   1.111     0.000174163       80
Bond:    33   1.11099   0.000117405       40
Bond:    34   1.46655   0.105574          20
Bond:    35   1.34683   0.0539793          6
Bond:    36   1.50049   0.0885084          6
Bond:    37   1.08299   0.000101864        6
Bond:    38   1.37738   0.0542003         12
Bond:    39   1.06998   0.000121966        6
Bond:    40   1.31435   0.086906          12
Bond:    41   1.39955   0.0436076          5
Bond:    42   1.46023   0.0595102          5
Bond:    43   1.38674   0.0677264          5
Bond:    44   1.43147   0                  1
Bond:    45   1.38898   0                  1
Bond:    46   1.08099   0                  1
Bond:    47   1.31968   0                  1
Bond:    48   1.08101   0                  1
Bond:    49   1.48618   0                  1
Bond:    50   1.08101   0                  1
Bond:    51   1.38509   0                  1
Bond:    52   1.57321   0                  1
Bond:    53   1.43781   0                  1
Bond:    54   1.08098   0                  1
Bond:    55   1.081     0                  1
Bond:    56   1.2507    0                  1
Bond:    57   1.42501   0                  1
Bond:    58   1.54113   0                  1
Bond:    59   1.55957   0                  1
Bond:    60   1.5299    0                  1
Bond:    61   1.59922   0                  1
Bond:    62   1.341     0                  1
Bond:    63   1.081     0                  1
Bond:    64   1.42813   0                  1
Bond:    65   1.081     0                  1
Bond:    66   1.55923   0                  1
Bond:    67   1.53331   0.186003          80
Bond:    68   1.55376   0.18202          246
Bond:    69   1.54291   0.190143         196
Bond:    70   1.11099   0.000155271      108
Bond:    71   1.07999   0.000169132      305
Bond:    72   1.45916   0.161613         304
Bond:    73   1.50325   0                  1
Bond:    74   1.42191   0.111856          27
Bond:    75   1.54441   0.160403          94
Bond:    76   1.55156   0.109681          23
Bond:    77   1.52511   0.145646           5
Bond:    78   1.111     0.000179398      626
Bond:    79   1.07999   0.000149891       46
Bond:    80   1.4921    0.0755869          7
Bond:    81   1.40606   0                  1
Bond:    82   1.4545    0.0809122         23
Bond:    83   1.4543    0.109954          10
Bond:    84   1.43221   0.0789964         15
Bond:    85   1.80773   0.168603          24
Bond:    86   1.80504   0.0779085          2
Bond:    87   1.55188   0.0359605          2
Bond:    88   1.11099   0.000196405      717
Bond:    89   1.80592   0.141366          16
Bond:    90   1.55698   0.188815         198
Bond:    91   1.111     0.00016334        99
Bond:    92   1.44045   0.121544          99
Bond:    93   1.5398    0.239244        2501
Bond:    94   1.53292   0.165326         200
Bond:    95   1.111     0.000245892     6194
Bond:    96   1.08      0.000162783      198
Bond:    97   1.52021   0.166199          99
Bond:    98   1.43341   0.138443         297
Bond:    99   1.111     0.000204859      600
Bond:   100   1.08      0.000225048      891
Bond:   101   1.49581   0.193692         297
Bond:   102   0.996992  0.000218916      327
Bond:   103   0.999995  0.000173504       54
Bond:   104   1         0.00016159        12
Bond:   105   0.97599   3.19739e-05        5
Bond:   106   0.960002  0.000106691       60
Bond:   107   0.999991  0.000156041       35
Bond:   108   1.04001   0.000129251       33
Bond:   109   1.01301   0                  1
Bond:   110   1.32501   0.000100997        6
Bond:   112   0.957197  0.000272687     8466
Bond:   113   1.48065   0.10507          198
Bond:   114   1.5786    0.201813         198
Angle:  232   104.52    0.0237494       4233
Per MPI rank memory allocation (min/avg/max) = 150.4 | 150.4 | 150.4 Mbytes
------------ Step              0 ----- CPU =            0 (sec) -------------
TotEng   =    -30160.2616 KinEng   =     19178.7632 Temp     =       301.3996 
PotEng   =    -49339.0249 E_bond   =         0.0062 E_angle  =     10921.3742 
E_dihed  =      5211.7865 E_impro  =       213.5116 E_vdwl   =     -2307.8634 
E_coul   =    207025.8934 E_long   =   -270403.7333 Press    =    -89257.7471 
Volume   =    307995.0335
ILVES stats (type/ave/delta/count) on step 50 (up to 2 Newton iterations)
Bond:     1   1.48999   1.39339e-05       20
Bond:     2   1.48999   1.42994e-05      304
Bond:     3   1.48999   1.3725e-05        23
Bond:     4   1.3       1.07925e-05       20
Bond:     5   1.365     1.28748e-05       21
Bond:     6   1.345     1.29618e-05      327
Bond:     7   1.22999   1.31073e-05      347
Bond:     8   1.375     1.375e-05        309
Bond:     9   1.36799   1.13471e-05       10
Bond:    10   1.49      1.38591e-05       49
Bond:    11   1.36499   6.62959e-06        5
Bond:    12   1.08      1.54914e-05      252
Bond:    13   1.37      8.24311e-06        5
Bond:    14   1.411     1.04841e-05       18
Bond:    15   1.522     0                  1
Bond:    16   1.522     1.4777e-05        49
Bond:    17   1.35999   1.22184e-05       27
Bond:    18   1.23      1.17817e-05       27
Bond:    19   1.26      1.16306e-05       46
Bond:    20   1.33999   1.3255e-05       198
Bond:    21   1.50199   1.46734e-05      396
Bond:    22   1.1       1.48965e-05      396
Bond:    23   1.52199   1.49233e-05      200
Bond:    24   1.22      1.19495e-05      200
Bond:    25   1.334     1.26069e-05      198
Bond:    26   1.818     1.59698e-06        2
Bond:    27   1.527     1.35074e-05       20
Bond:    28   1.08      9.75204e-06       20
Bond:    29   1.43399   1.3674e-05        20
Bond:    30   1.53699   1.45392e-05       20
Bond:    31   1.537     1.43732e-05       20
Bond:    32   1.111     1.19744e-05       80
Bond:    33   1.11099   1.9432e-05        40
Bond:    34   1.45499   1.21049e-05       20
Bond:    35   1.36      9.33031e-06        6
Bond:    36   1.5       7.28525e-06        6
Bond:    37   1.08299   8.17104e-06        6
Bond:    38   1.36999   8.68149e-06       12
Bond:    39   1.06999   5.93142e-06        6
Bond:    40   1.32      1.23316e-05       12
Bond:    41   1.4       1.25709e-05        5
Bond:    42   1.43999   1.00363e-05        5
Bond:    43   1.37499   1.11672e-05        5
Bond:    44   1.44389   0                  1
Bond:    45   1.3462    0                  1
Bond:    46   1.081     0                  1
Bond:    47   1.3386    0                  1
Bond:    48   1.081     0                  1
Bond:    49   1.4545    0                  1
Bond:    50   1.08099   0                  1
Bond:    51   1.3455    0                  1
Bond:    52   1.493     0                  1
Bond:    53   1.4578    0                  1
Bond:    54   1.081     0                  1
Bond:    55   1.081     0                  1
Bond:    56   1.274     0                  1
Bond:    57   1.32849   0                  1
Bond:    58   1.51249   0                  1
Bond:    59   1.5125    0                  1
Bond:    60   1.48389   0                  1
Bond:    61   1.5344    0                  1
Bond:    62   1.3168    0                  1
Bond:    63   1.081     0                  1
Bond:    64   1.46839   0                  1
Bond:    65   1.081     0                  1
Bond:    66   1.4909    0                  1
Bond:    67   1.5       1.37008e-05       80
Bond:    68   1.538     1.50497e-05      246
Bond:    69   1.53799   1.44433e-05      196
Bond:    70   1.11099   1.78203e-05      108
Bond:    71   1.08      1.456e-05        305
Bond:    72   1.43      1.38061e-05      304
Bond:    73   1.48      0                  1
Bond:    74   1.42      1.30547e-05       27
Bond:    75   1.52999   1.41127e-05       94
Bond:    76   1.528     1.08012e-05       23
Bond:    77   1.51      1.14216e-05        5
Bond:    78   1.11099   1.51401e-05      626
Bond:    79   1.07999   1.09819e-05       46
Bond:    80   1.48999   1.3449e-05         7
Bond:    81   1.43      0                  1
Bond:    82   1.43      1.34507e-05       23
Bond:    83   1.48      1.33735e-05       10
Bond:    84   1.42      9.16458e-06       15
Bond:    85   1.81799   1.71089e-05       24
Bond:    86   1.816     8.35724e-06        2
Bond:    87   1.52999   1.07949e-05        2
Bond:    88   1.111     1.4816e-05       717
Bond:    89   1.81599   1.54064e-05       16
Bond:    90   1.53799   1.50362e-05      198
Bond:    91   1.111     1.07907e-05       99
Bond:    92   1.42999   1.35688e-05       99
Bond:    93   1.52999   1.51501e-05     2501
Bond:    94   1.52799   1.49842e-05      200
Bond:    95   1.111     1.69216e-05     6194
Bond:    96   1.08      1.53382e-05      198
Bond:    97   1.50999   1.46401e-05       99
Bond:    98   1.42999   1.40547e-05      297
Bond:    99   1.111     1.61101e-05      600
Bond:   100   1.08      1.54375e-05      891
Bond:   101   1.51      1.48494e-05      297
Bond:   102   0.996993  1.6833e-05       327
Bond:   103   0.999996  1.17275e-05       54
Bond:   104   0.999996  9.02686e-06       12
Bond:   105   0.975993  9.93301e-06        5
Bond:   106   0.959996  1.38133e-05       60
Bond:   107   0.999995  1.14367e-05       35
Bond:   108   1.04      1.27068e-05       33
Bond:   109   1.013     0                  1
Bond:   110   1.32499   1.20155e-05        6
Bond:   112   0.957196  2.3325e-05      8466
Bond:   113   1.48      1.44506e-05      198
Bond:   114   1.59999   1.55665e-05      198
Angle:  232   104.52    0.00167088      4233
------------ Step             50 ----- CPU =      7.42323 (sec) -------------
TotEng   =    -29132.6335 KinEng   =     19232.5816 Temp     =       302.2454 
PotEng   =    -48365.2151 E_bond   =         0.0762 E_angle  =     11106.1768 
E_dihed  =      5302.3689 E_impro  =       238.4224 E_vdwl   =     -1511.6117 
E_coul   =    206910.3107 E_long   =   -270410.9583 Press    =      -338.4909 
Volume   =    307577.9606
ILVES stats (type/ave/delta/count) on step 100 (up to 2 Newton iterations)
Bond:     1   1.48999   2.22085e-05       20
Bond:     2   1.48999   2.17341e-05      304
Bond:     3   1.48999   2.16992e-05       23
Bond:     4   1.3       1.66125e-05       20
Bond:     5   1.36499   2.03444e-05       21
Bond:     6   1.345     2.02971e-05      327
Bond:     7   1.22999   1.87389e-05      347
Bond:     8   1.37499   2.11939e-05      309
Bond:     9   1.36799   1.86001e-05       10
Bond:    10   1.48999   2.23378e-05       49
Bond:    11   1.36499   9.49108e-06        5
Bond:    12   1.07999   1.95469e-05      252
Bond:    13   1.37      9.72004e-06        5
Bond:    14   1.41099   1.82148e-05       18
Bond:    15   1.522     0                  1
Bond:    16   1.52199   2.29534e-05       49
Bond:    17   1.35999   2.05692e-05       27
Bond:    18   1.22999   1.80682e-05       27
Bond:    19   1.25999   1.78024e-05       46
Bond:    20   1.33999   2.03685e-05      198
Bond:    21   1.50199   2.23796e-05      396
Bond:    22   1.09999   2.04216e-05      396
Bond:    23   1.52199   2.3113e-05       200
Bond:    24   1.22      1.77092e-05      200
Bond:    25   1.334     1.97601e-05      198
Bond:    26   1.818     3.81551e-07        2
Bond:    27   1.52699   2.04283e-05       20
Bond:    28   1.07999   1.59527e-05       20
Bond:    29   1.43399   2.06259e-05       20
Bond:    30   1.53699   2.26505e-05       20
Bond:    31   1.53699   2.29314e-05       20
Bond:    32   1.11099   1.75091e-05       80
Bond:    33   1.11099   1.63517e-05       40
Bond:    34   1.45499   1.8869e-05        20
Bond:    35   1.35999   1.50584e-05        6
Bond:    36   1.5       9.32681e-06        6
Bond:    37   1.08299   1.32838e-05        6
Bond:    38   1.36999   1.53639e-05       12
Bond:    39   1.06999   1.26485e-05        6
Bond:    40   1.31999   1.95238e-05       12
Bond:    41   1.39999   1.8205e-05         5
Bond:    42   1.43999   1.5237e-05         5
Bond:    43   1.37498   1.72562e-05        5
Bond:    44   1.44389   0                  1
Bond:    45   1.34619   0                  1
Bond:    46   1.081     0                  1
Bond:    47   1.3386    0                  1
Bond:    48   1.081     0                  1
Bond:    49   1.4545    0                  1
Bond:    50   1.08099   0                  1
Bond:    51   1.3455    0                  1
Bond:    52   1.493     0                  1
Bond:    53   1.4578    0                  1
Bond:    54   1.081     0                  1
Bond:    55   1.081     0                  1
Bond:    56   1.274     0                  1
Bond:    57   1.32849   0                  1
Bond:    58   1.51248   0                  1
Bond:    59   1.5125    0                  1
Bond:    60   1.48388   0                  1
Bond:    61   1.5344    0                  1
Bond:    62   1.31679   0                  1
Bond:    63   1.081     0                  1
Bond:    64   1.46839   0                  1
Bond:    65   1.081     0                  1
Bond:    66   1.4909    0                  1
Bond:    67   1.49999   2.10277e-05       80
Bond:    68   1.53799   2.26593e-05      246
Bond:    69   1.53799   2.25207e-05      196
Bond:    70   1.11099   1.90654e-05      108
Bond:    71   1.07999   2.22212e-05      305
Bond:    72   1.42999   2.12661e-05      304
Bond:    73   1.47999   0                  1
Bond:    74   1.41999   2.07955e-05       27
Bond:    75   1.52999   2.22848e-05       94
Bond:    76   1.528     2.16262e-05       23
Bond:    77   1.51      1.62936e-05        5
Bond:    78   1.11099   2.13491e-05      626
Bond:    79   1.07999   1.67695e-05       46
Bond:    80   1.48999   1.65858e-05        7
Bond:    81   1.43      0                  1
Bond:    82   1.42999   2.11647e-05       23
Bond:    83   1.47999   2.06653e-05       10
Bond:    84   1.41999   1.7798e-05        15
Bond:    85   1.81799   2.72777e-05       24
Bond:    86   1.81599   1.83605e-05        2
Bond:    87   1.52999   1.82437e-05        2
Bond:    88   1.11099   2.10037e-05      717
Bond:    89   1.81599   2.31146e-05       16
Bond:    90   1.53799   2.32957e-05      198
Bond:    91   1.111     1.53952e-05       99
Bond:    92   1.42999   2.13982e-05       99
Bond:    93   1.52999   2.39657e-05     2501
Bond:    94   1.52799   2.30168e-05      200
Bond:    95   1.11099   2.24037e-05     6194
Bond:    96   1.07999   1.79089e-05      198
Bond:    97   1.50999   2.26889e-05       99
Bond:    98   1.42999   2.16636e-05      297
Bond:    99   1.11099   1.87842e-05      600
Bond:   100   1.07999   2.02085e-05      891
Bond:   101   1.50999   2.25017e-05      297
Bond:   102   0.99699   2.39992e-05      327
Bond:   103   0.999994  1.79635e-05       54
Bond:   104   0.999995  1.46237e-05       12
Bond:   105   0.975992  9.99431e-06        5
Bond:   106   0.959994  2.02835e-05       60
Bond:   107   0.999994  1.51988e-05       35
Bond:   108   1.03999   1.78357e-05       33
Bond:   109   1.013     0                  1
Bond:   110   1.32499   1.332e-05          6
Bond:   112   0.957195  2.26115e-05     8466
Bond:   113   1.47999   2.2112e-05       198
Bond:   114   1.59999   2.44667e-05      198
Angle:  232   104.52    0.00215985      4233
------------ Step            100 ----- CPU =     15.39746 (sec) -------------
TotEng   =    -30496.0167 KinEng   =     18644.6702 Temp     =       293.0062 
PotEng   =    -49140.6869 E_bond   =         0.0234 E_angle  =     10843.0899 
E_dihed  =      5211.3478 E_impro  =       226.1536 E_vdwl   =     -1385.6720 
E_coul   =    206375.0848 E_long   =   -270410.7144 Press    =       259.4911 
Volume   =    307324.2158
ILVES stats (type/ave/delta/count) on step 150 (up to 2 Newton iterations)
Bond:     1   1.49      3.26354e-06       20
Bond:     2   1.49      3.34686e-06      304
Bond:     3   1.49      3.14566e-06       23
Bond:     4   1.3       2.62579e-06       20
Bond:     5   1.365     3.06648e-06       21
Bond:     6   1.345     3.04151e-06      327
Bond:     7   1.23      2.82141e-06      347
Bond:     8   1.375     3.15621e-06      309
Bond:     9   1.368     2.85907e-06       10
Bond:    10   1.49      3.25702e-06       49
Bond:    11   1.365     1.38915e-06        5
Bond:    12   1.08      2.48039e-06      252
Bond:    13   1.37      1.40888e-06        5
Bond:    14   1.411     2.81954e-06       18
Bond:    15   1.522     0                  1
Bond:    16   1.522     3.47791e-06       49
Bond:    17   1.36      2.801e-06         27
Bond:    18   1.23      2.81641e-06       27
Bond:    19   1.26      2.84865e-06       46
Bond:    20   1.34      3.0371e-06       198
Bond:    21   1.502     3.44272e-06      396
Bond:    22   1.1       2.48682e-06      396
Bond:    23   1.522     3.48993e-06      200
Bond:    24   1.22      2.74005e-06      200
Bond:    25   1.334     3.01862e-06      198
Bond:    26   1.818     3.04153e-08        2
Bond:    27   1.527     2.95585e-06       20
Bond:    28   1.08      2.2211e-06        20
Bond:    29   1.434     3.08319e-06       20
Bond:    30   1.537     3.30989e-06       20
Bond:    31   1.537     3.48112e-06       20
Bond:    32   1.111     2.52677e-06       80
Bond:    33   1.111     2.24733e-06       40
Bond:    34   1.455     2.76712e-06       20
Bond:    35   1.36      2.26935e-06        6
Bond:    36   1.5       1.74204e-06        6
Bond:    37   1.083     1.03775e-06        6
Bond:    38   1.37      1.97217e-06       12
Bond:    39   1.07      1.33986e-06        6
Bond:    40   1.32      2.95364e-06       12
Bond:    41   1.4       2.55806e-06        5
Bond:    42   1.44      2.30999e-06        5
Bond:    43   1.375     2.56231e-06        5
Bond:    44   1.4439    0                  1
Bond:    45   1.3462    0                  1
Bond:    46   1.081     0                  1
Bond:    47   1.3386    0                  1
Bond:    48   1.081     0                  1
Bond:    49   1.4545    0                  1
Bond:    50   1.081     0                  1
Bond:    51   1.3455    0                  1
Bond:    52   1.493     0                  1
Bond:    53   1.4578    0                  1
Bond:    54   1.081     0                  1
Bond:    55   1.081     0                  1
Bond:    56   1.274     0                  1
Bond:    57   1.3285    0                  1
Bond:    58   1.5125    0                  1
Bond:    59   1.5125    0                  1
Bond:    60   1.4839    0                  1
Bond:    61   1.5344    0                  1
Bond:    62   1.3168    0                  1
Bond:    63   1.081     0                  1
Bond:    64   1.4684    0                  1
Bond:    65   1.081     0                  1
Bond:    66   1.4909    0                  1
Bond:    67   1.5       3.26838e-06       80
Bond:    68   1.538     3.45906e-06      246
Bond:    69   1.538     3.39937e-06      196
Bond:    70   1.111     2.52852e-06      108
Bond:    71   1.08      2.52837e-06      305
Bond:    72   1.43      3.26575e-06      304
Bond:    73   1.48      0                  1
Bond:    74   1.42      3.21281e-06       27
Bond:    75   1.53      3.44898e-06       94
Bond:    76   1.528     2.83552e-06       23
Bond:    77   1.51      2.26497e-06        5
Bond:    78   1.111     2.51527e-06      626
Bond:    79   1.08      2.3555e-06        46
Bond:    80   1.49      2.43398e-06        7
Bond:    81   1.43      0                  1
Bond:    82   1.43      3.19736e-06       23
Bond:    83   1.48      3.07925e-06       10
Bond:    84   1.42      2.10178e-06       15
Bond:    85   1.818     4.16308e-06       24
Bond:    86   1.816     1.847e-06          2
Bond:    87   1.53      2.78786e-06        2
Bond:    88   1.111     2.56549e-06      717
Bond:    89   1.816     3.89186e-06       16
Bond:    90   1.538     3.5097e-06       198
Bond:    91   1.111     2.24548e-06       99
Bond:    92   1.43      3.24708e-06       99
Bond:    93   1.53      3.51164e-06     2501
Bond:    94   1.528     3.50571e-06      200
Bond:    95   1.111     2.59027e-06     6194
Bond:    96   1.08      2.44995e-06      198
Bond:    97   1.51      3.44078e-06       99
Bond:    98   1.43      3.27486e-06      297
Bond:    99   1.111     2.58079e-06      600
Bond:   100   1.08      2.52295e-06      891
Bond:   101   1.51      3.43555e-06      297
Bond:   102   0.997001  2.33077e-06      327
Bond:   103   1         2.28855e-06       54
Bond:   104   1         2.1651e-06        12
Bond:   105   0.976001  1.80579e-06        5
Bond:   106   0.960001  3.37386e-06       60
Bond:   107   1         2.32914e-06       35
Bond:   108   1.04      2.36367e-06       33
Bond:   109   1.013     0                  1
Bond:   110   1.325     2.4368e-06         6
Bond:   112   0.957201  6.19115e-06     8466
Bond:   113   1.48      3.35653e-06      198
Bond:   114   1.6       3.65518e-06      198
Angle:  232   104.52    0.000755532     4233
------------ Step            150 ----- CPU =      23.0412 (sec) -------------
TotEng   =    -31111.4369 KinEng   =     18295.4694 Temp     =       287.5184 
PotEng   =    -49406.9063 E_bond   =         0.0087 E_angle  =     10629.7244 
E_dihed  =      5249.0798 E_impro  =       220.5226 E_vdwl   =     -1458.3725 
E_coul   =    206358.1042 E_long   =   -270405.9734 Press    =      -206.6560 
Volume   =    307296.5543
ILVES stats (type/ave/delta/count) on step 200 (up to 2 Newton iterations)
Bond:     1   1.49      8.99658e-06       20
Bond:     2   1.49      9.74025e-06      304
Bond:     3   1.49      9.16907e-06       23
Bond:     4   1.3       6.87891e-06       20
Bond:     5   1.365     8.38633e-06       21
Bond:     6   1.345     8.63261e-06      327
Bond:     7   1.23      7.95305e-06      347
Bond:     8   1.375     8.97741e-06      309
Bond:     9   1.368     7.70202e-06       10
Bond:    10   1.49      9.13622e-06       49
Bond:    11   1.36499   4.78088e-06        5
Bond:    12   1.08      1.13215e-05      252
Bond:    13   1.37      4.13018e-06        5
Bond:    14   1.411     6.53261e-06       18
Bond:    15   1.522     0                  1
Bond:    16   1.522     9.48878e-06       49
Bond:    17   1.36      8.1591e-06        27
Bond:    18   1.23      7.68367e-06       27
Bond:    19   1.26      7.83301e-06       46
Bond:    20   1.34      8.61748e-06      198
Bond:    21   1.502     9.7051e-06       396
Bond:    22   1.1       1.16476e-05      396
Bond:    23   1.522     9.67097e-06      200
Bond:    24   1.22      8.17583e-06      200
Bond:    25   1.334     8.12955e-06      198
Bond:    26   1.818     8.48014e-07        2
Bond:    27   1.527     8.76819e-06       20
Bond:    28   1.08      1.01217e-05       20
Bond:    29   1.434     8.45614e-06       20
Bond:    30   1.537     9.66845e-06       20
Bond:    31   1.537     9.70329e-06       20
Bond:    32   1.111     1.0553e-05        80
Bond:    33   1.111     7.18389e-06       40
Bond:    34   1.455     7.83156e-06       20
Bond:    35   1.36      5.72529e-06        6
Bond:    36   1.5       4.50249e-06        6
Bond:    37   1.083     6.34389e-06        6
Bond:    38   1.37      6.93214e-06       12
Bond:    39   1.07      3.8021e-06         6
Bond:    40   1.32      8.16804e-06       12
Bond:    41   1.4       8.33853e-06        5
Bond:    42   1.44      6.82209e-06        5
Bond:    43   1.37499   7.14866e-06        5
Bond:    44   1.44389   0                  1
Bond:    45   1.3462    0                  1
Bond:    46   1.081     0                  1
Bond:    47   1.3386    0                  1
Bond:    48   1.081     0                  1
Bond:    49   1.4545    0                  1
Bond:    50   1.081     0                  1
Bond:    51   1.3455    0                  1
Bond:    52   1.493     0                  1
Bond:    53   1.4578    0                  1
Bond:    54   1.081     0                  1
Bond:    55   1.081     0                  1
Bond:    56   1.274     0                  1
Bond:    57   1.32849   0                  1
Bond:    58   1.51249   0                  1
Bond:    59   1.5125    0                  1
Bond:    60   1.48389   0                  1
Bond:    61   1.5344    0                  1
Bond:    62   1.3168    0                  1
Bond:    63   1.081     0                  1
Bond:    64   1.46839   0                  1
Bond:    65   1.081     0                  1
Bond:    66   1.4909    0                  1
Bond:    67   1.5       8.91627e-06       80
Bond:    68   1.538     9.86228e-06      246
Bond:    69   1.538     9.85549e-06      196
Bond:    70   1.111     1.11999e-05      108
Bond:    71   1.08      1.98172e-05      305
Bond:    72   1.43      9.05355e-06      304
Bond:    73   1.48      0                  1
Bond:    74   1.42      8.63777e-06       27
Bond:    75   1.53      9.48721e-06       94
Bond:    76   1.528     7.66118e-06       23
Bond:    77   1.51      6.92964e-06        5
Bond:    78   1.111     1.32869e-05      626
Bond:    79   1.08      8.26255e-06       46
Bond:    80   1.49      7.21385e-06        7
Bond:    81   1.43      0                  1
Bond:    82   1.43      7.93811e-06       23
Bond:    83   1.48      7.99453e-06       10
Bond:    84   1.42      7.3922e-06        15
Bond:    85   1.818     1.12274e-05       24
Bond:    86   1.816     5.25484e-06        2
Bond:    87   1.53      6.86995e-06        2
Bond:    88   1.111     1.39461e-05      717
Bond:    89   1.816     9.09043e-06       16
Bond:    90   1.538     9.77818e-06      198
Bond:    91   1.111     1.07413e-05       99
Bond:    92   1.43      9.05701e-06       99
Bond:    93   1.53      9.91043e-06     2501
Bond:    94   1.528     9.93053e-06      200
Bond:    95   1.111     1.56192e-05     6194
Bond:    96   1.08      1.2289e-05       198
Bond:    97   1.51      9.54975e-06       99
Bond:    98   1.43      9.12069e-06      297
Bond:    99   1.111     1.37608e-05      600
Bond:   100   1.08      1.39925e-05      891
Bond:   101   1.51      9.70664e-06      297
Bond:   102   0.996998  1.25004e-05      327
Bond:   103   0.999999  9.33528e-06       54
Bond:   104   1         7.91375e-06       12
Bond:   105   0.975998  4.69464e-06        5
Bond:   106   0.96      8.23085e-06       60
Bond:   107   0.999999  8.98212e-06       35
Bond:   108   1.04      1.06036e-05       33
Bond:   109   1.013     0                  1
Bond:   110   1.325     5.83893e-06        6
Bond:   112   0.957199  1.8204e-05      8466
Bond:   113   1.48      9.12096e-06      198
Bond:   114   1.6       1.01547e-05      198
Angle:  232   104.52    0.00152732      4233
------------ Step            200 ----- CPU =     30.85602 (sec) -------------
TotEng   =    -30468.0863 KinEng   =     18826.9717 Temp     =       295.8711 
PotEng   =    -49295.0581 E_bond   =         0.0241 E_angle  =     10720.5199 
E_dihed  =      5197.9062 E_impro  =       233.7447 E_vdwl   =     -1526.0901 
E_coul   =    206485.1308 E_long   =   -270406.2936 Press    =       152.7813 
Volume   =    307203.6709
Loop time of 30.856 on 1 procs for 200 steps with 32000 atoms

Performance: 1.120 ns/day, 21.428 hours/ns, 6.482 timesteps/s, 207.415 katom-step/s
99.6% CPU use with 1 MPI tasks x 1 OpenMP threads

MPI task timing breakdown:
Section |  min time  |  avg time  |  max time  |%varavg| %total
---------------------------------------------------------------
Pair    | 23.318     | 23.318     | 23.318     |   0.0 | 75.57
Bond    | 0.75307    | 0.75307    | 0.75307    |   0.0 |  2.44
Kspace  | 1.2868     | 1.2868     | 1.2868     |   0.0 |  4.17
Neigh   | 4.0139     | 4.0139     | 4.0139     |   0.0 | 13.01
Comm    | 0.055232   | 0.055232   | 0.055232   |   0.0 |  0.18
Output  | 0.00047987 | 0.00047987 | 0.00047987 |   0.0 |  0.00
Modify  | 1.4098     | 1.4098     | 1.4098     |   0.0 |  4.57
Other   |            | 0.01862    |            |       |  0.06

Nlocal:          32000 ave       32000 max       32000 min
Histogram: 1 0 0 0 0 0 0 0 0 0
Nghost:          47920 ave       47920 max       47920 min
Histogram: 1 0 0 0 0 0 0 0 0 0
Neighs:    1.20657e+07 ave 1.20657e+07 max 1.20657e+07 min
Histogram: 1 0 0 0 0 0 0 0 0 0

Total # of neighbors = 12065701
Ave neighs/atom = 377.05316
Ave special neighs/atom = 7.431875
Neighbor list builds = 22
Dangerous builds = 0
Total wall time: 0:00:31
