LAMMPS (30 Mar 2026 - Development - patch_30Mar2026-2152-g107b880cf8-modified)
OMP_NUM_THREADS environment is not set. Defaulting to 1 thread.
  using 1 OpenMP thread(s) per MPI task
# Solvated 5-mer peptide -- ILVES constraint solver
# (mirror of examples/peptide/in.peptide using fix ilves)

units           real
atom_style      full

pair_style      lj/charmm/coul/long 8.0 10.0 10.0
bond_style      harmonic
angle_style     charmm
dihedral_style  charmm
improper_style  harmonic
kspace_style    pppm 0.0001

read_data       data.peptide
Reading data file ...
  orthogonal box = (36.840194 41.013691 29.768095) to (64.21156 68.385058 57.139462)
  1 by 1 by 1 MPI processor grid
  reading atoms ...
  2004 atoms
  reading velocities ...
  2004 velocities
  scanning bonds ...
  3 = max bonds/atom
  scanning angles ...
  6 = max angles/atom
  scanning dihedrals ...
  14 = max dihedrals/atom
  scanning impropers ...
  1 = max impropers/atom
  orthogonal box = (36.840194 41.013691 29.768095) to (64.21156 68.385058 57.139462)
  1 by 1 by 1 MPI processor grid
  reading bonds ...
  1365 bonds
  reading angles ...
  786 angles
  reading dihedrals ...
  207 dihedrals
  reading impropers ...
  12 impropers
Finding 1-2 1-3 1-4 neighbors ...
  special bond factors lj:    0        0        0       
  special bond factors coul:  0        0        0       
     4 = max # of 1-2 neighbors
     7 = max # of 1-3 neighbors
    14 = max # of 1-4 neighbors
    18 = max # of special neighbors
  special bonds CPU = 0.000 seconds
  read_data CPU = 0.011 seconds

neighbor        2.0 bin
neigh_modify    delay 5

timestep        2.0

thermo_style    multi
thermo          50

fix             1 all nvt temp 275.0 275.0 100.0 tchain 1

group           peptide type <= 12
84 atoms in group peptide
group           waters  type > 12
1920 atoms in group waters

fix             cstr all ilves 0.0001 150 100 b 4 6 8 10 12 14 18 a 31

run             300

CITE-CITE-CITE-CITE-CITE-CITE-CITE-CITE-CITE-CITE-CITE-CITE-CITE

Your simulation uses code contributions which should be cited:

- fix ilves command: doi:10.1021/acs.jctc.5c01376

@Article{LopezVillellas2025,
 author = {L{\'o}pez-Villellas, Lori{\'e}n and Mikkelsen, Carl Christian Kjelgaard and Galano-Frutos, Juan Jos{\'e} and Marco-Sola, Santiago and Alastruey-Bened{\'e}, Jes{\'u}s and Ib{\'a}{\~n}ez, Pablo and Echenique, Pablo and Moret{\'o}, Miquel and {De Rosa}, Maria Cristina and Garc{\'i}a-Risue{\~n}o, Pablo},
 title = {ILVES: Accurate and Efficient Bond Length and Angle Constraints in Molecular Dynamics},
 journal = {J.~Chem.\ Theory Comput.},
 volume = 21,
 pages = {8711--8719},
 year = 2025
}

CITE-CITE-CITE-CITE-CITE-CITE-CITE-CITE-CITE-CITE-CITE-CITE-CITE

PPPM initialization ...
  using 12-bit tables for long-range coulomb
  G vector (1/distance) = 0.26872465
  grid = 15 15 15
  stencil order = 5
  estimated absolute RMS force accuracy = 0.022820853
  estimated relative force accuracy = 6.872432e-05
  using double precision FFTW3
  3d grid and FFT values/proc = 10648 3375
Generated 91 of 91 mixed pair_coeff terms from arithmetic mixing rule
Neighbor list info ...
  update: every = 1 steps, delay = 5 steps, check = yes
  max neighbors/atom: 2000, page size: 100000
  master list distance cutoff = 12
  ghost atom cutoff = 12
  binsize = 6, bins = 5 5 5
  1 neighbor lists, perpetual/occasional/extra = 1 0 0
  (1) pair lj/charmm/coul/long, perpetual
      attributes: half, newton on
      pair build: half/bin/newton
      stencil: half/bin/3d
      bin: standard
Fix ilves: constraining 1320 bond(s) and 640 angle(s)
ILVES stats (type/ave/delta/count) on step 0 (up to 0 Newton iterations)
Bond:    4   1.111     1.44264e-05        9
Bond:    6   0.996998  7.26967e-06        6
Bond:    8   1.08      1.32536e-05        7
Bond:   10   1.111     1.22749e-05        8
Bond:   12   1.08      1.11767e-05        9
Bond:   14   0.96      0                  1
Bond:   18   0.957206  4.37979e-05     1280
Angle:  31   104.519   0.00396029       640
Per MPI rank memory allocation (min/avg/max) = 19.82 | 19.82 | 19.82 Mbytes
------------ Step              0 ----- CPU =            0 (sec) -------------
TotEng   =     -5237.4662 KinEng   =      1134.9103 Temp     =       282.0985 
PotEng   =     -6372.3765 E_bond   =        16.5572 E_angle  =        36.3726 
E_dihed  =        15.5190 E_impro  =         1.9426 E_vdwl   =       692.8945 
E_coul   =     26772.2647 E_long   =    -33907.9271 Press    =      -222.7110
------------ Step             50 ----- CPU =    0.4741458 (sec) -------------
TotEng   =     -5247.6079 KinEng   =      1132.3452 Temp     =       281.4609 
PotEng   =     -6379.9531 E_bond   =        12.2117 E_angle  =        31.7363 
E_dihed  =        18.8124 E_impro  =         2.3610 E_vdwl   =       658.2101 
E_coul   =     26804.4136 E_long   =    -33907.6983 Press    =     -1331.4765
ILVES stats (type/ave/delta/count) on step 100 (up to 2 Newton iterations)
Bond:    4   1.111     7.34452e-07        9
Bond:    6   0.997     1.06928e-06        6
Bond:    8   1.08      7.51411e-07        7
Bond:   10   1.111     6.46881e-07        8
Bond:   12   1.08      2.67489e-07        9
Bond:   14   0.96      0                  1
Bond:   18   0.9572    4.3073e-06      1280
Angle:  31   104.52    0.000388822      640
------------ Step            100 ----- CPU =    0.9350381 (sec) -------------
TotEng   =     -5257.9847 KinEng   =      1077.8153 Temp     =       267.9067 
PotEng   =     -6335.8000 E_bond   =        14.4861 E_angle  =        43.4385 
E_dihed  =        15.2580 E_impro  =         2.3158 E_vdwl   =       708.2686 
E_coul   =     26787.0028 E_long   =    -33906.5699 Press    =      -648.9272
------------ Step            150 ----- CPU =     1.417819 (sec) -------------
TotEng   =     -5287.1617 KinEng   =      1098.8025 Temp     =       273.1233 
PotEng   =     -6385.9641 E_bond   =        17.4932 E_angle  =        32.8639 
E_dihed  =        15.1672 E_impro  =         1.6540 E_vdwl   =       737.2798 
E_coul   =     26716.7617 E_long   =    -33907.1840 Press    =      -331.5586
ILVES stats (type/ave/delta/count) on step 200 (up to 2 Newton iterations)
Bond:    4   1.111     1.63328e-07        9
Bond:    6   0.997     1.33099e-07        6
Bond:    8   1.08      5.13337e-08        7
Bond:   10   1.111     1.77712e-07        8
Bond:   12   1.08      1.54675e-07        9
Bond:   14   0.96      0                  1
Bond:   18   0.9572    2.325e-06       1280
Angle:  31   104.52    0.000318885      640
------------ Step            200 ----- CPU =     1.894865 (sec) -------------
TotEng   =     -5308.0561 KinEng   =      1101.4750 Temp     =       273.7876 
PotEng   =     -6409.5311 E_bond   =        18.2423 E_angle  =        33.3325 
E_dihed  =        16.8462 E_impro  =         2.5677 E_vdwl   =       685.2505 
E_coul   =     26736.1640 E_long   =    -33901.9342 Press    =     -1495.2591
------------ Step            250 ----- CPU =     2.381633 (sec) -------------
TotEng   =     -5289.4140 KinEng   =      1071.7012 Temp     =       266.3869 
PotEng   =     -6361.1152 E_bond   =        14.5516 E_angle  =        39.9929 
E_dihed  =        19.1626 E_impro  =         3.1048 E_vdwl   =       747.5807 
E_coul   =     26721.8979 E_long   =    -33907.4057 Press    =      -266.2605
ILVES stats (type/ave/delta/count) on step 300 (up to 2 Newton iterations)
Bond:    4   1.111     3.89499e-06        9
Bond:    6   0.997001  4.32306e-06        6
Bond:    8   1.08      2.08044e-06        7
Bond:   10   1.111     4.65087e-06        8
Bond:   12   1.08      2.42468e-06        9
Bond:   14   0.96      0                  1
Bond:   18   0.957201  6.73427e-06     1280
Angle:  31   104.52    0.000667937      640
------------ Step            300 ----- CPU =     2.836564 (sec) -------------
TotEng   =     -5240.3923 KinEng   =      1129.9761 Temp     =       280.8720 
PotEng   =     -6370.3684 E_bond   =        14.5002 E_angle  =        39.7672 
E_dihed  =        17.7973 E_impro  =         2.1843 E_vdwl   =       732.9127 
E_coul   =     26730.9661 E_long   =    -33908.4962 Press    =      -233.9018
Loop time of 2.83658 on 1 procs for 300 steps with 2004 atoms

Performance: 18.276 ns/day, 1.313 hours/ns, 105.761 timesteps/s, 211.945 katom-step/s
99.5% CPU use with 1 MPI tasks x 1 OpenMP threads

MPI task timing breakdown:
Section |  min time  |  avg time  |  max time  |%varavg| %total
---------------------------------------------------------------
Pair    | 2.2685     | 2.2685     | 2.2685     |   0.0 | 79.97
Bond    | 0.0090776  | 0.0090776  | 0.0090776  |   0.0 |  0.32
Kspace  | 0.155      | 0.155      | 0.155      |   0.0 |  5.46
Neigh   | 0.27652    | 0.27652    | 0.27652    |   0.0 |  9.75
Comm    | 0.019944   | 0.019944   | 0.019944   |   0.0 |  0.70
Output  | 0.00022852 | 0.00022852 | 0.00022852 |   0.0 |  0.01
Modify  | 0.1033     | 0.1033     | 0.1033     |   0.0 |  3.64
Other   |            | 0.003978   |            |       |  0.14

Nlocal:           2004 ave        2004 max        2004 min
Histogram: 1 0 0 0 0 0 0 0 0 0
Nghost:          11151 ave       11151 max       11151 min
Histogram: 1 0 0 0 0 0 0 0 0 0
Neighs:         707978 ave      707978 max      707978 min
Histogram: 1 0 0 0 0 0 0 0 0 0

Total # of neighbors = 707978
Ave neighs/atom = 353.28244
Ave special neighs/atom = 2.3403194
Neighbor list builds = 25
Dangerous builds = 0
Total wall time: 0:00:02
