LAMMPS (30 Mar 2026 - Development - patch_30Mar2026-2152-g107b880cf8-modified)
OMP_NUM_THREADS environment is not set. Defaulting to 1 thread.
  using 1 OpenMP thread(s) per MPI task
# Rhodopsin model

units           real
neigh_modify    delay 5 every 1
atom_style      full
bond_style      harmonic
angle_style     charmm
dihedral_style  charmm
improper_style  harmonic
pair_style      lj/charmm/coul/long 8.0 10.0
pair_modify     mix arithmetic
kspace_style    pppm 1e-4

read_data       data.rhodo
Reading data file ...
  orthogonal box = (-27.5 -38.5 -36.3646) to (27.5 38.5 36.3615)
  1 by 1 by 1 MPI processor grid
  reading atoms ...
  32000 atoms
  reading velocities ...
  32000 velocities
  scanning bonds ...
  4 = max bonds/atom
  scanning angles ...
  8 = max angles/atom
  scanning dihedrals ...
  18 = max dihedrals/atom
  scanning impropers ...
  2 = max impropers/atom
  orthogonal box = (-27.5 -38.5 -36.3646) to (27.5 38.5 36.3615)
  1 by 1 by 1 MPI processor grid
  reading bonds ...
  27723 bonds
  reading angles ...
  40467 angles
  reading dihedrals ...
  56829 dihedrals
  reading impropers ...
  1034 impropers
Finding 1-2 1-3 1-4 neighbors ...
  special bond factors lj:    0        0        0       
  special bond factors coul:  0        0        0       
     4 = max # of 1-2 neighbors
    12 = max # of 1-3 neighbors
    24 = max # of 1-4 neighbors
    26 = max # of special neighbors
  special bonds CPU = 0.010 seconds
  read_data CPU = 0.239 seconds

fix             1 all shake 0.0001 100 50 m 1.0 a 232
Finding SHAKE clusters ...
    1617 = # of size 2 clusters
    3633 = # of size 3 clusters
     747 = # of size 4 clusters
    4233 = # of frozen angles
  find clusters CPU = 0.005 seconds
fix             2 all npt temp 300.0 300.0 100.0                 z 0.0 0.0 1000.0 mtk no pchain 0 tchain 1

special_bonds   charmm

thermo          50
thermo_style    multi
timestep        2.0

run             200
PPPM initialization ...
  using 12-bit tables for long-range coulomb
  G vector (1/distance) = 0.24883488
  grid = 25 32 32
  stencil order = 5
  estimated absolute RMS force accuracy = 0.035547797
  estimated relative force accuracy = 0.00010705113
  using double precision FFTW3
  3d grid and FFT values/proc = 41070 25600
Generated 2278 of 2278 mixed pair_coeff terms from arithmetic mixing rule
Neighbor list info ...
  update: every = 1 steps, delay = 5 steps, check = yes
  max neighbors/atom: 2000, page size: 100000
  master list distance cutoff = 12
  ghost atom cutoff = 12
  binsize = 6, bins = 10 13 13
  1 neighbor lists, perpetual/occasional/extra = 1 0 0
  (1) pair lj/charmm/coul/long, perpetual
      attributes: half, newton on
      pair build: half/bin/newton
      stencil: half/bin/3d
      bin: standard
SHAKE stats (type/ave/delta/count) on step 0
Bond:    12   1.07999   0.000176421      252
Bond:    22   1.1       0.000185329      396
Bond:    28   1.08      0.000136975       20
Bond:    32   1.111     0.000174163       80
Bond:    33   1.11099   0.000117405       40
Bond:    37   1.08299   0.000101864        6
Bond:    39   1.06998   0.000121966        6
Bond:    46   1.08099   0                  1
Bond:    48   1.08101   0                  1
Bond:    50   1.08101   0                  1
Bond:    54   1.08098   0                  1
Bond:    55   1.081     0                  1
Bond:    63   1.081     0                  1
Bond:    65   1.081     0                  1
Bond:    70   1.11099   0.000155271      108
Bond:    71   1.07999   0.000169132      305
Bond:    78   1.111     0.000179398      626
Bond:    79   1.07999   0.000149891       46
Bond:    88   1.11099   0.000196405      717
Bond:    91   1.111     0.00016334        99
Bond:    95   1.111     0.000245892     6194
Bond:    96   1.08      0.000162783      198
Bond:    99   1.111     0.000204859      600
Bond:   100   1.08      0.000225048      891
Bond:   102   0.996992  0.000218916      327
Bond:   103   0.999995  0.000173504       54
Bond:   104   1         0.00016159        12
Bond:   105   0.97599   3.19739e-05        5
Bond:   106   0.960002  0.000106691       60
Bond:   107   0.999991  0.000156041       35
Bond:   108   1.04001   0.000129251       33
Bond:   109   1.01301   0                  1
Bond:   110   1.32501   0.000100997        6
Bond:   112   0.957197  0.000272687     8466
Angle:  232   104.52    0.0237494       4233
Per MPI rank memory allocation (min/avg/max) = 140 | 140 | 140 Mbytes
------------ Step              0 ----- CPU =            0 (sec) -------------
TotEng   =    -25356.2057 KinEng   =     21444.8313 Temp     =       299.0397 
PotEng   =    -46801.0370 E_bond   =      2537.9940 E_angle  =     10921.3742 
E_dihed  =      5211.7865 E_impro  =       213.5116 E_vdwl   =     -2307.8634 
E_coul   =    207025.8934 E_long   =   -270403.7333 Press    =      -149.3300 
Volume   =    307995.0335
SHAKE stats (type/ave/delta/count) on step 50
Bond:    12   1.08      7.65829e-06      252
Bond:    22   1.1       7.82272e-06      396
Bond:    28   1.08      6.77846e-06       20
Bond:    32   1.111     8.04375e-06       80
Bond:    33   1.111     8.30058e-06       40
Bond:    37   1.083     5.09601e-06        6
Bond:    39   1.07      3.92009e-06        6
Bond:    46   1.081     0                  1
Bond:    48   1.081     0                  1
Bond:    50   1.08101   0                  1
Bond:    54   1.081     0                  1
Bond:    55   1.081     0                  1
Bond:    63   1.081     0                  1
Bond:    65   1.081     0                  1
Bond:    70   1.111     7.74744e-06      108
Bond:    71   1.08      7.64147e-06      305
Bond:    78   1.111     9.50542e-06      626
Bond:    79   1.08      7.61408e-06       46
Bond:    88   1.111     8.44126e-06      717
Bond:    91   1.111     7.05918e-06       99
Bond:    95   1.111     1.04318e-05     6194
Bond:    96   1.08      7.79649e-06      198
Bond:    99   1.111     8.0557e-06       600
Bond:   100   1.08      8.67092e-06      891
Bond:   102   0.997004  7.08163e-06      327
Bond:   103   1         7.67994e-06       54
Bond:   104   1         6.38584e-06       12
Bond:   105   0.976003  4.80622e-06        5
Bond:   106   0.960002  6.78773e-06       60
Bond:   107   1         8.45579e-06       35
Bond:   108   1.04      7.03778e-06       33
Bond:   109   1.013     0                  1
Bond:   110   1.325     6.12242e-06        6
Bond:   112   0.957203  9.8039e-06      8466
Angle:  232   104.52    0.00111657      4233
------------ Step             50 ----- CPU =     7.272286 (sec) -------------
TotEng   =    -25330.0307 KinEng   =     21501.0009 Temp     =       299.8229 
PotEng   =    -46831.0316 E_bond   =      2471.7035 E_angle  =     10836.5102 
E_dihed  =      5239.6319 E_impro  =       227.1218 E_vdwl   =     -1993.2873 
E_coul   =    206797.6807 E_long   =   -270410.3925 Press    =       237.6572 
Volume   =    308031.6762
SHAKE stats (type/ave/delta/count) on step 100
Bond:    12   1.08      9.11602e-06      252
Bond:    22   1.1       9.17167e-06      396
Bond:    28   1.08      8.35833e-06       20
Bond:    32   1.111     9.83769e-06       80
Bond:    33   1.111     8.83197e-06       40
Bond:    37   1.083     7.14564e-06        6
Bond:    39   1.07      6.92561e-06        6
Bond:    46   1.081     0                  1
Bond:    48   1.081     0                  1
Bond:    50   1.08101   0                  1
Bond:    54   1.081     0                  1
Bond:    55   1.081     0                  1
Bond:    63   1.081     0                  1
Bond:    65   1.081     0                  1
Bond:    70   1.111     9.17742e-06      108
Bond:    71   1.08      8.98956e-06      305
Bond:    78   1.111     9.76521e-06      626
Bond:    79   1.08      9.85345e-06       46
Bond:    88   1.111     9.67658e-06      717
Bond:    91   1.111     8.61213e-06       99
Bond:    95   1.111     1.18274e-05     6194
Bond:    96   1.08      9.85894e-06      198
Bond:    99   1.111     9.93504e-06      600
Bond:   100   1.08      1.03839e-05      891
Bond:   102   0.997005  8.33985e-06      327
Bond:   103   1         8.78372e-06       54
Bond:   104   1         7.88365e-06       12
Bond:   105   0.976004  5.97206e-06        5
Bond:   106   0.960003  8.06441e-06       60
Bond:   107   1         8.22081e-06       35
Bond:   108   1.04      8.73118e-06       33
Bond:   109   1.013     0                  1
Bond:   110   1.325     8.61031e-06        6
Bond:   112   0.957204  1.11849e-05     8466
Angle:  232   104.52    0.00124187      4233
------------ Step            100 ----- CPU =     14.76702 (sec) -------------
TotEng   =    -25290.7364 KinEng   =     21591.9089 Temp     =       301.0906 
PotEng   =    -46882.6454 E_bond   =      2567.9807 E_angle  =     10781.9571 
E_dihed  =      5198.7492 E_impro  =       216.7864 E_vdwl   =     -1902.6616 
E_coul   =    206659.5159 E_long   =   -270404.9730 Press    =         6.7352 
Volume   =    308134.2286
SHAKE stats (type/ave/delta/count) on step 150
Bond:    12   1.08001   4.08646e-05      252
Bond:    22   1.10001   4.13283e-05      396
Bond:    28   1.08001   3.55992e-05       20
Bond:    32   1.11101   4.16276e-05       80
Bond:    33   1.11101   4.09149e-05       40
Bond:    37   1.08302   2.0152e-05         6
Bond:    39   1.07002   2.06999e-05        6
Bond:    46   1.081     0                  1
Bond:    48   1.081     0                  1
Bond:    50   1.08102   0                  1
Bond:    54   1.081     0                  1
Bond:    55   1.081     0                  1
Bond:    63   1.081     0                  1
Bond:    65   1.081     0                  1
Bond:    70   1.11102   4.2216e-05       108
Bond:    71   1.08001   4.01799e-05      305
Bond:    78   1.11101   4.21276e-05      626
Bond:    79   1.08001   3.82111e-05       46
Bond:    88   1.11101   4.25177e-05      717
Bond:    91   1.11101   3.74114e-05       99
Bond:    95   1.11101   4.3822e-05      6194
Bond:    96   1.08001   3.97453e-05      198
Bond:    99   1.11101   4.26032e-05      600
Bond:   100   1.08001   4.12693e-05      891
Bond:   102   0.997023  3.79105e-05      327
Bond:   103   1.00001   3.76734e-05       54
Bond:   104   1.00001   3.65539e-05       12
Bond:   105   0.976019  2.53075e-05        5
Bond:   106   0.960013  3.64646e-05       60
Bond:   107   1.00001   3.81007e-05       35
Bond:   108   1.04001   3.95605e-05       33
Bond:   109   1.013     0                  1
Bond:   110   1.32502   3.13232e-05        6
Bond:   112   0.957213  3.91465e-05     8466
Angle:  232   104.52    0.00450257      4233
------------ Step            150 ----- CPU =     22.07102 (sec) -------------
TotEng   =    -25258.0797 KinEng   =     21529.6599 Temp     =       300.2226 
PotEng   =    -46787.7395 E_bond   =      2556.3466 E_angle  =     10852.7810 
E_dihed  =      5265.2305 E_impro  =       203.0691 E_vdwl   =     -2066.1358 
E_coul   =    206797.4448 E_long   =   -270396.4758 Press    =       251.4724 
Volume   =    308515.2404
SHAKE stats (type/ave/delta/count) on step 200
Bond:    12   1.08001   2.47549e-05      252
Bond:    22   1.10001   2.53778e-05      396
Bond:    28   1.08001   2.15638e-05       20
Bond:    32   1.11101   2.54541e-05       80
Bond:    33   1.11101   2.23443e-05       40
Bond:    37   1.08301   2.01675e-05        6
Bond:    39   1.07001   1.36e-05           6
Bond:    46   1.081     0                  1
Bond:    48   1.081     0                  1
Bond:    50   1.08102   0                  1
Bond:    54   1.081     0                  1
Bond:    55   1.081     0                  1
Bond:    63   1.081     0                  1
Bond:    65   1.081     0                  1
Bond:    70   1.11101   2.4814e-05       108
Bond:    71   1.08001   2.49108e-05      305
Bond:    78   1.11101   2.56483e-05      626
Bond:    79   1.08001   2.42194e-05       46
Bond:    88   1.11101   2.66451e-05      717
Bond:    91   1.111     2.12446e-05       99
Bond:    95   1.11101   2.68898e-05     6194
Bond:    96   1.08001   2.42752e-05      198
Bond:    99   1.11101   2.68228e-05      600
Bond:   100   1.08001   2.61955e-05      891
Bond:   102   0.997014  2.32676e-05      327
Bond:   103   1.00001   2.27978e-05       54
Bond:   104   1.00001   2.08827e-05       12
Bond:   105   0.976011  1.72943e-05        5
Bond:   106   0.960008  2.19668e-05       60
Bond:   107   1.00001   2.19345e-05       35
Bond:   108   1.04001   2.44497e-05       33
Bond:   109   1.013     0                  1
Bond:   110   1.32501   1.35404e-05        6
Bond:   112   0.957208  2.46833e-05     8466
Angle:  232   104.52    0.00291607      4233
------------ Step            200 ----- CPU =     29.57321 (sec) -------------
TotEng   =    -25078.8459 KinEng   =     21571.3619 Temp     =       300.8041 
PotEng   =    -46650.2078 E_bond   =      2488.6956 E_angle  =     11073.4385 
E_dihed  =      5221.7536 E_impro  =       232.8552 E_vdwl   =     -2167.7425 
E_coul   =    206902.9156 E_long   =   -270402.1240 Press    =        20.6708 
Volume   =    308997.5613
Loop time of 29.5732 on 1 procs for 200 steps with 32000 atoms

Performance: 1.169 ns/day, 20.537 hours/ns, 6.763 timesteps/s, 216.412 katom-step/s
99.6% CPU use with 1 MPI tasks x 1 OpenMP threads

MPI task timing breakdown:
Section |  min time  |  avg time  |  max time  |%varavg| %total
---------------------------------------------------------------
Pair    | 22.906     | 22.906     | 22.906     |   0.0 | 77.45
Bond    | 0.74755    | 0.74755    | 0.74755    |   0.0 |  2.53
Kspace  | 1.2727     | 1.2727     | 1.2727     |   0.0 |  4.30
Neigh   | 3.9818     | 3.9818     | 3.9818     |   0.0 | 13.46
Comm    | 0.046671   | 0.046671   | 0.046671   |   0.0 |  0.16
Output  | 0.00041403 | 0.00041403 | 0.00041403 |   0.0 |  0.00
Modify  | 0.60423    | 0.60423    | 0.60423    |   0.0 |  2.04
Other   |            | 0.01423    |            |       |  0.05

Nlocal:          32000 ave       32000 max       32000 min
Histogram: 1 0 0 0 0 0 0 0 0 0
Nghost:          47775 ave       47775 max       47775 min
Histogram: 1 0 0 0 0 0 0 0 0 0
Neighs:    1.19959e+07 ave 1.19959e+07 max 1.19959e+07 min
Histogram: 1 0 0 0 0 0 0 0 0 0

Total # of neighbors = 11995943
Ave neighs/atom = 374.87322
Ave special neighs/atom = 7.431875
Neighbor list builds = 22
Dangerous builds = 0
Total wall time: 0:00:30
