LAMMPS (30 Mar 2026 - Development - patch_30Mar2026-2152-g107b880cf8-modified)
OMP_NUM_THREADS environment is not set. Defaulting to 1 thread.
  using 1 OpenMP thread(s) per MPI task
# Solvated 5-mer peptide -- RATTLE constraint solver, for comparison

units           real
atom_style      full

pair_style      lj/charmm/coul/long 8.0 10.0 10.0
bond_style      harmonic
angle_style     charmm
dihedral_style  charmm
improper_style  harmonic
kspace_style    pppm 0.0001

read_data       data.peptide
Reading data file ...
  orthogonal box = (36.840194 41.013691 29.768095) to (64.21156 68.385058 57.139462)
  1 by 1 by 1 MPI processor grid
  reading atoms ...
  2004 atoms
  reading velocities ...
  2004 velocities
  scanning bonds ...
  3 = max bonds/atom
  scanning angles ...
  6 = max angles/atom
  scanning dihedrals ...
  14 = max dihedrals/atom
  scanning impropers ...
  1 = max impropers/atom
  orthogonal box = (36.840194 41.013691 29.768095) to (64.21156 68.385058 57.139462)
  1 by 1 by 1 MPI processor grid
  reading bonds ...
  1365 bonds
  reading angles ...
  786 angles
  reading dihedrals ...
  207 dihedrals
  reading impropers ...
  12 impropers
Finding 1-2 1-3 1-4 neighbors ...
  special bond factors lj:    0        0        0       
  special bond factors coul:  0        0        0       
     4 = max # of 1-2 neighbors
     7 = max # of 1-3 neighbors
    14 = max # of 1-4 neighbors
    18 = max # of special neighbors
  special bonds CPU = 0.000 seconds
  read_data CPU = 0.011 seconds

neighbor        2.0 bin
neigh_modify    delay 5

timestep        2.0

thermo_style    multi
thermo          50

fix             1 all nvt temp 275.0 275.0 100.0 tchain 1

group           peptide type <= 12
84 atoms in group peptide
group           waters  type > 12
1920 atoms in group waters

fix             cstr all rattle 0.0001 20 100 b 4 6 8 10 12 14 18 a 31
Finding RATTLE clusters ...
      19 = # of size 2 clusters
       6 = # of size 3 clusters
       3 = # of size 4 clusters
     640 = # of frozen angles
  find clusters CPU = 0.000 seconds

run             300
PPPM initialization ...
  using 12-bit tables for long-range coulomb
  G vector (1/distance) = 0.26872465
  grid = 15 15 15
  stencil order = 5
  estimated absolute RMS force accuracy = 0.022820853
  estimated relative force accuracy = 6.872432e-05
  using double precision FFTW3
  3d grid and FFT values/proc = 10648 3375
Generated 91 of 91 mixed pair_coeff terms from arithmetic mixing rule
Neighbor list info ...
  update: every = 1 steps, delay = 5 steps, check = yes
  max neighbors/atom: 2000, page size: 100000
  master list distance cutoff = 12
  ghost atom cutoff = 12
  binsize = 6, bins = 5 5 5
  1 neighbor lists, perpetual/occasional/extra = 1 0 0
  (1) pair lj/charmm/coul/long, perpetual
      attributes: half, newton on
      pair build: half/bin/newton
      stencil: half/bin/3d
      bin: standard
RATTLE stats (type/ave/delta/count) on step 0
Bond:    4   1.111     1.44264e-05        9
Bond:    6   0.996998  7.26967e-06        6
Bond:    8   1.08      1.32536e-05        7
Bond:   10   1.111     1.22749e-05        8
Bond:   12   1.08      1.11767e-05        9
Bond:   14   0.96      0                  1
Bond:   18   0.957206  4.37979e-05     1280
Angle:  31   104.519   0.00396029       640
Per MPI rank memory allocation (min/avg/max) = 19.4 | 19.4 | 19.4 Mbytes
------------ Step              0 ----- CPU =            0 (sec) -------------
TotEng   =     -5237.4663 KinEng   =      1134.9102 Temp     =       282.0984 
PotEng   =     -6372.3765 E_bond   =        16.5572 E_angle  =        36.3726 
E_dihed  =        15.5190 E_impro  =         1.9426 E_vdwl   =       692.8945 
E_coul   =     26772.2647 E_long   =    -33907.9271 Press    =      -838.2525
------------ Step             50 ----- CPU =    0.4137959 (sec) -------------
TotEng   =     -5246.5292 KinEng   =      1136.6816 Temp     =       282.5387 
PotEng   =     -6383.2108 E_bond   =        12.1867 E_angle  =        31.6583 
E_dihed  =        18.7913 E_impro  =         2.3544 E_vdwl   =       657.5255 
E_coul   =     26802.0151 E_long   =    -33907.7420 Press    =       549.6571
RATTLE stats (type/ave/delta/count) on step 100
Bond:    4   1.111     5.19536e-07        9
Bond:    6   0.997     9.8056e-07         6
Bond:    8   1.08      6.53534e-07        7
Bond:   10   1.111     5.98349e-07        8
Bond:   12   1.08      1.73169e-07        9
Bond:   14   0.96      0                  1
Bond:   18   0.9572    9.7855e-06      1280
Angle:  31   104.52    0.000557719      640
------------ Step            100 ----- CPU =    0.8640479 (sec) -------------
TotEng   =     -5272.7607 KinEng   =      1075.1521 Temp     =       267.2447 
PotEng   =     -6347.9128 E_bond   =        14.3718 E_angle  =        43.0992 
E_dihed  =        15.1951 E_impro  =         2.2813 E_vdwl   =       707.9183 
E_coul   =     26775.8677 E_long   =    -33906.6461 Press    =      1246.4252
------------ Step            150 ----- CPU =     1.301359 (sec) -------------
TotEng   =     -5314.0744 KinEng   =      1093.4375 Temp     =       271.7898 
PotEng   =     -6407.5119 E_bond   =        17.2887 E_angle  =        32.4899 
E_dihed  =        15.0256 E_impro  =         1.6171 E_vdwl   =       738.3839 
E_coul   =     26695.5535 E_long   =    -33907.8706 Press    =      1474.9399
RATTLE stats (type/ave/delta/count) on step 200
Bond:    4   1.111     1.07375e-07        9
Bond:    6   0.997     9.17727e-08        6
Bond:    8   1.08      3.24314e-08        7
Bond:   10   1.111     1.44501e-07        8
Bond:   12   1.08      1.15293e-07        9
Bond:   14   0.96      0                  1
Bond:   18   0.9572    1.56115e-06     1280
Angle:  31   104.52    0.000141428      640
------------ Step            200 ----- CPU =     1.739172 (sec) -------------
TotEng   =     -5333.8364 KinEng   =      1100.8748 Temp     =       273.6384 
PotEng   =     -6434.7112 E_bond   =        17.9474 E_angle  =        32.9631 
E_dihed  =        16.7686 E_impro  =         2.6018 E_vdwl   =       686.9021 
E_coul   =     26710.6305 E_long   =    -33902.5248 Press    =       549.3332
------------ Step            250 ----- CPU =     2.178794 (sec) -------------
TotEng   =     -5319.5814 KinEng   =      1062.3018 Temp     =       264.0505 
PotEng   =     -6381.8832 E_bond   =        14.6145 E_angle  =        39.8713 
E_dihed  =        19.0277 E_impro  =         2.9459 E_vdwl   =       752.0832 
E_coul   =     26697.2554 E_long   =    -33907.6812 Press    =      1612.4218
RATTLE stats (type/ave/delta/count) on step 300
Bond:    4   1.111     1.0576e-06         9
Bond:    6   0.997     1.06999e-06        6
Bond:    8   1.08      6.43914e-07        7
Bond:   10   1.111     1.55651e-06        8
Bond:   12   1.08      9.43682e-07        9
Bond:   14   0.96      0                  1
Bond:   18   0.9572    6.85198e-06     1280
Angle:  31   104.52    0.000405427      640
------------ Step            300 ----- CPU =     2.603418 (sec) -------------
TotEng   =     -5275.8052 KinEng   =      1157.5446 Temp     =       287.7246 
PotEng   =     -6433.3499 E_bond   =        14.1507 E_angle  =        38.3748 
E_dihed  =        18.3102 E_impro  =         1.9022 E_vdwl   =       704.0039 
E_coul   =     26698.3270 E_long   =    -33908.4187 Press    =      1366.1451
Loop time of 2.60344 on 1 procs for 300 steps with 2004 atoms

Performance: 19.912 ns/day, 1.205 hours/ns, 115.232 timesteps/s, 230.925 katom-step/s
99.6% CPU use with 1 MPI tasks x 1 OpenMP threads

MPI task timing breakdown:
Section |  min time  |  avg time  |  max time  |%varavg| %total
---------------------------------------------------------------
Pair    | 2.1366     | 2.1366     | 2.1366     |   0.0 | 82.07
Bond    | 0.005356   | 0.005356   | 0.005356   |   0.0 |  0.21
Kspace  | 0.13372    | 0.13372    | 0.13372    |   0.0 |  5.14
Neigh   | 0.2634     | 0.2634     | 0.2634     |   0.0 | 10.12
Comm    | 0.012695   | 0.012695   | 0.012695   |   0.0 |  0.49
Output  | 0.00017909 | 0.00017909 | 0.00017909 |   0.0 |  0.01
Modify  | 0.049303   | 0.049303   | 0.049303   |   0.0 |  1.89
Other   |            | 0.002222   |            |       |  0.09

Nlocal:           2004 ave        2004 max        2004 min
Histogram: 1 0 0 0 0 0 0 0 0 0
Nghost:          11153 ave       11153 max       11153 min
Histogram: 1 0 0 0 0 0 0 0 0 0
Neighs:         707701 ave      707701 max      707701 min
Histogram: 1 0 0 0 0 0 0 0 0 0

Total # of neighbors = 707701
Ave neighs/atom = 353.14421
Ave special neighs/atom = 2.3403194
Neighbor list builds = 25
Dangerous builds = 0
Total wall time: 0:00:02
