LAMMPS data file via write_data, version 30 Mar 2026, timestep = 2000, units = lj

48 atoms
3 atom types
48 ellipsoids

-1.3679807573413574 8.207884544048145 xlo xhi
-1.3679807573413574 8.207884544048145 ylo yhi
-1.0259855680060177 6.155913408036108 zlo zhi

Atoms # ellipsoid

2 2 1 0.477464829275686 0.11201373014541918 0.22780850530491623 -0.2907120313341139 0 0 0
14 2 1 0.477464829275686 -1.0674282499662215 7.872457798370093 0.45594077500816693 0 0 0
22 1 1 2.291831180523292 4.0626497891493365 -0.9064951799419947 0.05424687502861005 0 0 0
6 1 1 2.291831180523292 2.6121291604107117 0.3575218513110692 0.06485971226664561 0 0 0
38 1 1 2.291831180523292 5.05757982953508 1.1626623199955026 1.6153015947308007 -1 0 1
5 2 1 0.477464829275686 7.965581362815667 2.9204371510731453 0.3278114572035921 -1 0 0
25 1 1 2.291831180523292 2.9791619928183484 1.3173755189611887 1.6021369060646864 0 0 0
41 1 1 2.291831180523292 2.1535642528487315 2.8533939452827317 0.4128533124148505 0 0 0
10 1 1 2.291831180523292 0.6112969590071216 4.112541875688706 0.16570720519502044 0 0 0
31 1 1 2.291831180523292 2.82050713172248 5.22524555071736 5.576229229128498 0 0 -1
28 3 1 0.9549296585513719 -0.5678302895574818 5.777405889503057 1.504208815871587 1 0 0
27 2 1 0.477464829275686 1.426316832098928 6.1487926893479585 -0.40854671593316527 0 0 0
47 2 1 0.477464829275686 2.5957754791476817 8.029049498288114 1.2937260414718812 0 0 0
7 1 1 2.291831180523292 2.6067005863339716 7.393494498054133 -0.8656745449093096 0 -1 0
48 2 1 0.477464829275686 4.713082896950099 6.938744983119635 0.8635841982706042 0 0 0
3 1 1 2.291831180523292 5.229438292134609 8.099314535500595 -0.8825892392895854 0 -1 0
4 3 1 0.9549296585513719 7.825055902348196 5.605104332589473 0.041750415043039314 0 -1 0
26 1 1 2.291831180523292 7.948028462615297 1.4112843655619594 1.82264968740347 -1 0 0
42 2 1 0.477464829275686 1.6301038910757035 0.3353036274230145 2.802942571648299 0 0 0
1 3 1 0.9549296585513719 4.636602943156129 1.4513055460288968 3.8611898248371173 -1 0 0
24 2 1 0.477464829275686 5.189464925521334 -0.6857313625776018 2.2426974507983894 0 0 0
17 3 1 0.9549296585513719 6.828846496237529 0.4687283268246328 1.507647693036863 -1 0 0
18 1 1 2.291831180523292 0.5771226434743303 2.6544268687936956 2.0528046509388225 0 0 0
19 3 1 0.9549296585513719 -1.0369929365841533 3.0988696827566335 2.959120316811389 0 0 0
12 3 1 0.9549296585513719 3.713489931568071 3.5521889478116897 2.114658407101286 0 0 -1
45 3 1 0.9549296585513719 0.0778883013706017 4.697398862051826 3.7133759367516617 0 0 0
9 3 1 0.9549296585513719 1.8740434856398438 5.041273746902366 2.52313344874642 0 0 -1
46 2 1 0.477464829275686 6.768637483980019 4.151030991377735 1.879888667489243 -1 0 0
16 1 1 2.291831180523292 0.540284133709643 7.018967250690982 2.7549639841495037 1 0 -1
37 1 1 2.291831180523292 5.935062730922734 7.033906953280739 2.512877778699697 -1 -1 0
34 2 1 0.477464829275686 -0.5687560762145478 -0.7187550643360824 4.101162417580678 0 0 0
15 3 1 0.9549296585513719 1.9521846224336044 -0.5257214241301094 5.779076354647942 0 1 0
11 3 1 0.9549296585513719 4.78233379666152 0.6180077468491983 -0.45569293360561847 0 0 0
8 1 1 2.291831180523292 3.864870826240727 -0.5911571835373227 5.72067517388301 0 0 -1
39 1 1 2.291831180523292 -0.3137214806055558 0.8010858260992215 4.674323562605432 0 0 0
13 3 1 0.9549296585513719 0.6361297350920867 2.26347002600756 4.474394977367338 0 0 -1
40 3 1 0.9549296585513719 2.8556823219323815 1.7481646218069629 4.333600383213627 0 0 0
30 1 1 2.291831180523292 4.976723882347682 2.3321366380278903 5.437381724562814 0 0 -1
21 3 1 0.9549296585513719 6.64402858141698 1.678935065062538 5.592994907605108 -1 0 0
29 2 1 0.477464829275686 2.1017010062904777 3.716689223560665 5.73494499374585 0 0 -1
36 2 1 0.477464829275686 4.812416642745318 4.603091262659898 4.805853216618535 0 -1 0
32 3 1 0.9549296585513719 6.973785470546355 5.455579516178816 3.4532756603566606 0 0 0
23 3 1 0.9549296585513719 -1.184112325172583 4.98994064970386 5.543580621896063 1 0 -1
43 3 1 0.9549296585513719 5.68170887445746 4.23477420161572 -0.14441313733799468 0 0 1
44 2 1 0.477464829275686 -0.040273698978083444 6.704583198409283 4.914305390459245 1 0 0
35 2 1 0.477464829275686 2.0131575754825 5.927034214479326 4.123281155273301 0 -1 0
20 3 1 0.9549296585513719 4.7321582223115195 6.919622443358832 4.441623179543553 0 -1 -1
33 2 1 0.477464829275686 6.889889504796305 7.678093651879354 5.700974048751614 -1 -1 0

Velocities

2 -0.015174611144430115 -0.17610794738427388 -0.03910750948330038 0.7179897864718484 0.5744523230746428 -0.26727341820183004
14 -0.06160326021117339 -0.12590759637961085 -0.10910988282522541 0.3517065722429744 0.21131803761911933 0.24632476728069466
22 0.24222557007256212 -0.23883941145042759 -0.2225161551469127 -3.7522968628521207e-17 3.591027242500005e-17 -1.2602995336297688e-17
6 -0.06485848071803622 -0.08968211150152236 -0.36440992325591715 -2.8388269784236806e-17 1.963388053309803e-17 -2.44977315287799e-16
38 -0.06518613739458855 0.08849160083916689 -0.007689106399873891 1.6886536391377735e-18 4.1792543443541795e-17 -2.0760658483110114e-16
5 -0.07321922829144746 0.26862215997496125 0.0026794399545688225 -0.4261672593283275 -0.9540269743803588 1.1574435357858837
25 0.003541111034406422 0.1387928003435862 -0.041804150888384524 2.0350246126141667e-16 -2.1763809193136652e-16 -4.7290110931776603e-17
41 -0.1619683906238037 -0.029836089524859055 0.02866567848151412 6.637198001935017e-17 -1.3328287408028617e-16 -2.0954289680368626e-19
10 -0.18509060359878385 0.04016795256338101 -0.21015825401518243 1.320801810286007e-16 1.121299446676967e-16 3.211554614241705e-16
31 -0.24431540428894843 -0.19448245588962174 0.03687372265525904 4.730348470992167e-17 4.8907806294271943e-17 -2.9687675003712436e-17
28 0.08571692242374926 -0.09959121218276795 0.09464665176742167 0.3700332601683014 -0.6563702895965762 0.3325619247501157
27 -0.014734813689115193 0.02977387523124187 -0.07449745491736759 0.08831834493978652 0.2359393994669115 -0.049416190344666114
47 -0.11483558439846396 -0.583088235171166 0.17920140267602633 0.38542349522395053 0.2289046714048881 0.9695676599899845
7 0.3575846076038142 -0.3847554700935583 0.022562098011365845 -8.778973274375717e-17 -3.5483208393801205e-17 3.892405399794577e-17
48 -0.018450666194000282 0.08377413613159443 -0.03337581213580007 0.25638565383136824 -0.12920514023574528 0.5913831903488282
3 0.12092524352762717 -0.016825730083106897 0.06262678099407817 1.8046696384996678e-16 9.179329307845569e-17 -2.484523866285957e-18
4 0.3794538810219747 -0.03027540931596829 -0.2206712902523486 -0.2784181814155889 -0.3318586203295973 -0.1736623073932571
26 -0.055373951289948105 0.08299706667029502 0.18338795826898105 -9.228827606704676e-17 5.4372588240683876e-18 2.596457016279305e-16
42 -0.23442022148854988 0.038924053352836205 0.4979402174652051 -0.02915073352744461 0.5146163981244091 -0.1978170199440465
1 0.16625355199915562 -0.053942540668232335 0.18505081269415588 -0.4200380867843 0.40597486150146456 -0.079195968789436
24 -0.13005306931745356 0.39079604652507083 0.3170781899477176 0.5471784817098393 0.592327170054922 0.48997445687512725
17 -0.030871437673314815 -0.03544477336074873 0.08424044044899265 0.25580647956077784 -0.3382385132896082 0.3373680811977376
18 -0.2895962051880243 -0.12468469860552127 0.0347566529399848 1.2189148231367613e-16 5.7950883880251e-17 -6.915194551646856e-17
19 -0.09277474607174568 -0.012472202937274243 0.11368470363001373 -0.04520674188804167 -0.33582079661652325 0.5232370534004223
12 -0.019604807159386225 0.5571657109271246 0.07590647119469875 -0.27840376356129276 0.2271401124871271 0.2983842594300683
45 -0.25492897475036497 0.20723171671960763 0.2827309156383664 0.316683910032914 0.11425865466647708 -0.467255908259716
9 0.6640169704276612 -0.1692239132483426 0.2797027984703982 -0.5191968720221489 -0.0567672600697555 0.12226455710526156
46 0.12032289438870365 -0.28124352868211216 0.2176129623973665 0.04590631479402238 0.22312744151584296 0.5866110386493694
16 -0.06158121235182435 0.18990573910651234 0.115152625895812 -5.083639689414421e-18 -2.263275377712661e-17 -1.979776565308705e-17
37 0.03046732249949331 -0.32904716274067886 -0.27156724931693865 -6.675985627878563e-18 1.1705869085473812e-17 4.571218185307316e-17
34 -0.08161588613323117 -0.10514218666347168 -0.004999796398510355 -0.7203672569554823 -0.7275734691223859 -0.14289961740591103
15 -0.2183859995491202 0.36429880101353984 0.24898445022262686 0.557678569242495 -0.2257573451127548 0.1796371571396623
11 0.2097594872561058 0.3376345104012957 -0.38340921786342785 0.13589905436859345 0.07123953911693544 -0.22589513572943615
8 -0.0768946300106258 0.09441165703755182 -0.10799136427134161 8.601908806275913e-17 1.3309418457801448e-16 -1.0516088442971995e-17
39 0.10516134115580525 0.06949515433058766 -0.03585900550058102 1.8084217626114823e-16 1.92085344439285e-16 8.625854357880484e-17
13 -0.14678641186167002 0.0870899076364592 -0.174163723913522 0.03873432597886025 0.4183435959516984 -0.4567913865361073
40 -0.22700340965769583 -0.18342046946771856 -0.16974119215787628 -0.20368834204671663 -0.1329949281442808 0.5586135263159386
30 0.111661947951627 0.06188266964948071 0.21931821949422828 9.628290903701103e-17 -2.2612895110210005e-16 1.7076407740372349e-18
21 -0.02863244568000709 0.011107558754533403 0.1539440521020704 1.5893157559842812 0.1620073067603261 0.03511626938509532
29 -0.11502650021476947 0.035470406574035704 -0.3292945694444041 0.3853893169412152 0.11919869012631021 0.2732210743937353
36 -0.13433577935222474 -0.198240334618361 0.2981544235063174 -0.5816121410737913 -0.20369673593444462 0.06903691709409854
32 0.02615936053944613 -0.13583668086426662 -0.041498754274420215 0.4193524579184968 -0.28758367946420454 -0.45567211631261917
23 0.46531505465883427 0.06909614685850217 -0.2755522294812445 0.10916080820560868 -0.7512393043267248 -1.0415487159134842
43 0.10325972289745516 0.0935855362290716 0.44888519910899954 -0.24521416468675655 0.6882875261371467 -0.6642574063230291
44 -0.17022062550470554 0.029032085021483973 -0.1773676827411094 0.1258163101924905 0.07324776389092058 0.16695619770652623
35 -0.1742716758213762 0.23128706335430288 -0.6054196075181839 -0.435599607164493 0.5206404090230418 -0.6960082094579979
20 -0.08267536101188752 -0.16208732762289746 -0.04536986809602411 -0.13143528443271224 -0.03926628393392379 0.09369997817598733
33 0.08879359277909012 0.08189739244915678 0.13888280148646853 -0.31232726302113073 -0.26041863664395437 -0.19667991325677142

Ellipsoids

2 1 2 2 -0.4215924841547462 -0.082994575411612 0.5676933698502742 0.7022078863018529
14 1 2 2 -0.7539535498565626 -0.026765724596493796 -0.6535702342208525 -0.060692582627635924
22 1 1 1 -0.06828932902019633 0.8927558980559921 -0.4416495352322783 -0.05717658661832858
6 1 1 1 0.5146157948674754 0.834913309532057 0.18285480245701488 0.06822367959550492
38 1 1 1 -0.6696330903545628 -0.4372085010290292 0.4272816477084923 0.4217471333176594
5 1 2 2 -0.2234962903183547 0.2116188099215623 0.32843843225152125 0.8929698112038718
25 1 1 1 -0.45752578087389717 -0.025587874000035864 0.709982939085795 -0.5347332482153934
41 1 1 1 -0.013754150087064909 0.6600863197510863 -0.4953285189856043 -0.5645764183105568
10 1 1 1 0.8904219924024311 0.07480685854712965 -0.24773545564397084 0.3744058671779446
31 1 1 1 -0.6200425500752722 0.6683982583125233 0.1386619688838741 -0.38673487399791956
28 3 1 1 -0.4212223555144099 -0.3238357913183652 0.7135297251128931 -0.45670279050649515
27 1 2 2 0.2460535530311331 0.8650699348025599 0.24419999107561163 0.3625989813831827
47 1 2 2 0.16175795139343188 0.4659958534718977 -0.026402915233910463 -0.8694740454867811
7 1 1 1 -0.7723397524845704 0.29162121876029146 0.5624348072075798 -0.04599412073523507
48 1 2 2 -0.33697136944690975 -0.0021096796169084225 -0.9313904365242445 0.13768696443805417
3 1 1 1 -0.4688358796251741 -0.8367663998713137 0.2292518584765988 -0.16570605120971132
4 3 1 1 0.3688677046180218 -0.3295208926299806 -0.29397773294595014 0.8178812201916196
26 1 1 1 0.1937349177396402 0.5052542641874352 -0.4383253407135538 0.717673885450192
42 1 2 2 0.1101685597264984 0.7603096564765137 -0.6401317896181327 0.004838040578724356
1 3 1 1 -0.09345517367787429 -0.3446878277648959 -0.12948787302947615 0.9250347683421732
24 1 2 2 0.24937894660801782 0.4145601189777517 -0.4914787201051489 -0.7241537933516835
17 3 1 1 -0.16420237740181107 0.4742556633117246 0.7025754777657649 0.5044867125252723
18 1 1 1 -0.4642009442155397 -0.07468971651670175 -0.7216498699021291 0.5080948680180667
19 3 1 1 0.49806149614630135 0.2193005649128207 -0.8104481738910014 -0.2168311917648532
12 3 1 1 -0.198779593511321 0.17785600988347466 -0.6306630273526519 0.728778470375046
45 3 1 1 -0.48164125638521765 0.33094807187031866 0.27042246939748177 0.765092649237957
9 3 1 1 0.6405628310280714 -0.4797832128365026 0.2602973920342075 -0.5401227600145877
46 1 2 2 0.37107343202482335 0.7536580131729951 0.163483686338444 0.5172786401221738
16 1 1 1 0.4153431280317659 0.39516000285212194 0.578438241679277 0.5802998007113958
37 1 1 1 0.2972104462204092 -0.46319832070833555 0.6985823271376841 -0.4572701592727665
34 1 2 2 0.37136369134483654 0.8452255136381196 0.35437660492688877 0.1486608950814093
15 3 1 1 -0.17071783531246226 0.5917626490796993 -0.42615886336958675 0.6626167904844744
11 3 1 1 0.21795273918327968 -0.5184483073712225 -0.2603289976361787 0.7848163919390078
8 1 1 1 -0.41897449761529565 -0.3244411963344278 -0.8289225253640475 0.17912489333754247
39 1 1 1 0.18832865131348026 0.1336641237054669 0.9625183189235057 0.1422135959223439
13 3 1 1 -0.39677223816709156 -0.6693666624947453 -0.292464318436917 0.5558639083460557
40 3 1 1 -0.2109384514598043 0.32030968133356746 -0.5825678000506475 -0.7166040999630671
30 1 1 1 -0.8411269447920916 -0.44953579343094646 -0.03768128928437873 -0.29833396321404315
21 3 1 1 0.38967974802535865 0.4640687833579343 -0.386327354842779 0.6953711477993325
29 1 2 2 0.3097912777467833 0.4782775399981108 -0.7645661312555858 -0.301195268724854
36 1 2 2 -0.016272604634700347 -0.33634023214113073 0.3918410508089765 0.8561956794346548
32 3 1 1 -0.7083884007477496 0.5798825253975379 -0.24366031851945727 0.3202370678163543
23 3 1 1 -0.4220581216802607 -0.31082266375199463 -0.6904636901150826 -0.4985138977546243
43 3 1 1 0.3201003953946808 -0.783347567255945 -0.4630357043924945 0.2636290238196631
44 1 2 2 -0.27995621755717864 0.6869521908535672 -0.21140005992026295 -0.6364206300853795
35 1 2 2 -0.01743794958164414 -0.8106490288170505 -0.01977284868755915 -0.5849385475818294
20 3 1 1 0.014377585985010861 0.3986821843748623 -0.30963342565687696 -0.8631181510079133
33 1 2 2 -0.33689194079424556 0.8653217790026884 0.0018522909187736005 0.37110457829277876
