LAMMPS data file for fix ilves angle constraint test (rigid water)
# the four clusters are at the exact force-field equilibrium geometry but each
# is given a distinct general 3d orientation (not axis-aligned), so all six
# constraint-virial components are well-conditioned and reproducible across
# platforms.

12 atoms
8 bonds
4 angles

5 atom types
5 bond types
4 angle types

0.0 20.0 xlo xhi
0.0 20.0 ylo yhi
0.0 20.0 zlo zhi

Masses

1 12.0107
2 4.00794
3 14.0067
4 15.9994
5 15.9994

Atoms # full

1 1 4 0.000 4.000000 4.000000 4.000000
2 1 2 0.000 5.079241 4.155387 4.145239
3 1 2 0.000 3.611773 3.308144 4.761981
4 2 4 0.000 12.000000 5.000000 6.000000
5 2 2 0.000 12.598100 5.864623 5.676422
6 2 2 0.000 12.201666 4.775429 7.057780
7 3 4 0.000 6.000000 13.000000 8.000000
8 3 2 0.000 6.309080 13.965248 7.572489
9 3 2 0.000 6.814286 12.577206 8.606781
10 4 4 0.000 13.000000 12.000000 13.000000
11 4 2 0.000 12.067779 11.834260 12.440095
12 4 2 0.000 12.783899 12.094907 14.074380

Bonds

1 2 1 2
2 2 1 3
3 2 4 5
4 2 4 6
5 2 7 8
6 2 7 9
7 2 10 11
8 2 10 12

Angles

1 1 2 1 3
2 1 5 4 6
3 1 8 7 9
4 1 11 10 12
