LAMMPS data file via write_data, version 30 Mar 2026, timestep = 0, units = metal

54 atoms
2 atom types

0 8.599499999999999 xlo xhi
0 8.599499999999999 ylo yhi
0 8.599499999999999 zlo zhi

Masses

1 55.845
2 55.845

Atoms # spin

1 1 0.03307615139354074 0.09652647123921265 8.480902117447078 -0.5260453157964325 0.3149019586169587 -0.7900082798223288 2.2 0 0 -1
2 2 1.3507610228392462 1.567060859213041 1.3364607935813655 -0.418050493511733 0.6938079210261853 0.5863994829430865 2.2 0 0 0
3 1 2.799640195109516 8.554759205635536 8.523919116462926 -0.6183157185751303 -0.4170777870817134 -0.6661319626665134 2.2 0 -1 -1
4 2 4.430717482462871 1.4183777534747974 1.4342026509211294 0.42444126144702055 -0.04322859610757467 -0.9044229674548462 2.2 0 0 0
5 1 5.775239460743015 8.486066707867332 0.035809126274629545 -0.03317776421745999 0.5146790250352798 -0.8567407642631838 2.2 0 -1 0
6 2 7.297409902629365 1.4992334917482026 1.3689458120448146 0.7765188522788887 0.09215586931329599 -0.6233183518929858 2.2 0 0 0
7 1 8.532583514996318 2.7290865431387727 0.031080533357269853 0.8040115774736729 -0.37492220004830595 -0.4615178514415603 2.2 -1 0 0
8 2 1.3263099878180236 4.254465257523483 1.388333197190826 -0.22252098638558052 -0.2020849116020884 0.9537536889159403 2.2 0 0 0
9 1 2.8185472037889396 2.9836540807138796 0.009784558178139644 0.494454546494749 -0.11742269561749014 -0.8612355148300576 2.2 0 0 0
10 2 4.269035211068257 4.332942424192986 1.477423411518777 0.06830401126095438 0.16877346555123499 0.9832853499221319 2.2 0 0 0
11 1 5.724968964703727 2.901039775548044 0.04375763597587712 0.8690655449279567 -0.11125169055675851 -0.48202504080943437 2.2 0 0 0
12 2 7.289384167161542 4.202697484029723 1.3101140875638178 0.03225981364395719 -0.47514841894945076 -0.87931409882561 2.2 0 0 0
13 1 0.1132344079761344 5.794344854890936 8.54242615197678 0.5654980020816588 -0.8038810590509701 0.18435631950313733 2.2 0 0 -1
14 2 1.3221446527580356 7.056778904305121 1.5588946561667227 0.25173830696170546 0.45027666313106207 -0.8566672349562637 2.2 0 0 0
15 1 2.8766254302709595 5.641006564021754 0.056421513617386364 0.06682151660264847 0.6694711946594605 0.7398264691399983 2.2 0 0 0
16 2 4.4233563686682755 7.265938207707863 1.4237069460522997 -0.11348745963318814 -0.4378073898669786 -0.8918773939751298 2.2 0 0 0
17 1 5.638524674428323 5.640553116842535 8.48773477249211 0.7126661819731338 0.20670943165513173 -0.6703567139491095 2.2 0 0 -1
18 2 7.189550578877015 7.215179186004122 1.3872291712919966 -0.17946821720225528 -0.4063199680724237 0.8959326105014085 2.2 0 0 0
19 1 8.561246014388171 0.021213821998349786 2.8146063262646464 -0.7041539410620521 0.6816598958435093 0.19876371320086608 2.2 -1 0 0
20 2 1.3892104209460017 1.3903448394511917 4.404116656181794 0.6257653596192287 -0.2924371751252956 0.7231170121808466 2.2 0 0 0
21 1 2.8922750484836985 0.0730898655232344 2.9926198490007754 -0.49734892767688293 0.17778560154156303 0.8491385776321551 2.2 0 0 0
22 2 4.213760825626638 1.5024963069155677 4.323430329949108 0.6816398187847366 -0.2507089436358984 -0.6873952160352029 2.2 0 0 0
23 1 5.743513367248414 0.12176334409838932 2.9486742616291153 0.6677021364756515 0.7189497340266866 0.19309359618798158 2.2 0 0 0
24 2 7.119390450898286 1.2923582474877513 4.3477155266380585 0.2107907167176347 0.4160831735981899 -0.884557554031463 2.2 0 0 0
25 1 8.517676235836884 3.001195710519175 2.735606695780545 0.09295414818113401 -0.44780096206802034 -0.889288381070435 2.2 -1 0 0
26 2 1.5323251644731266 4.306189299840765 4.171362423756596 0.5722366698242164 -0.4613566691540281 0.6780082724684051 2.2 0 0 0
27 1 2.9770306162227436 2.7759168556533247 2.8337429654337547 0.525713810953427 -0.7597331168174588 -0.3826624886027557 2.2 0 0 0
28 2 4.374110696162625 4.285970405255279 4.319301125477964 0.6014681728736743 0.5968162568872794 -0.5310804011965239 2.2 0 0 0
29 1 5.799804379105837 2.83964963181467 2.7794619091605703 0.8288261466642082 0.1274768720259394 0.544790662277028 2.2 0 0 0
30 2 7.30892978845041 4.205054486041297 4.233046896078098 -0.7706789708466066 -0.10643217249752036 -0.6282723267439635 2.2 0 0 0
31 1 8.513062882035848 5.726558376507919 2.955833968594488 0.5046340942344412 0.4353179835577112 0.7455485793209143 2.2 -1 0 0
32 2 1.328341008299876 7.1449764960160715 4.208518542119997 0.7980621810488299 -0.1848167207827456 -0.5735325055292831 2.2 0 0 0
33 1 2.8149142733342427 5.847941928622041 2.9611443506486337 -0.8551409404619374 -0.4705752311319872 0.21746936287888963 2.2 0 0 0
34 2 4.167541964442779 7.2565963897994115 4.366473358718421 0.336191549908739 -0.6886579427927945 -0.6424371405813615 2.2 0 0 0
35 1 5.662403856965517 5.667974019445781 2.9712948252436098 -0.6095233795546399 0.36497559582311245 0.7037571059888879 2.2 0 0 0
36 2 7.103328579460598 7.097784994276175 4.221498799677809 0.2234329716439954 -0.4189160409957223 -0.8801062764114367 2.2 0 0 0
37 1 8.538690984201274 8.489621470841296 5.603860429697151 0.6357503805516224 -0.6723697282605848 -0.3791311147179227 2.2 -1 -1 0
38 2 1.5103910554837976 1.4250195161861108 7.28845853996616 0.37039711727868785 0.4257815832226389 -0.8255398348354009 2.2 0 0 0
39 1 2.784929905732793 0.09837565105571444 5.735367293392234 -0.7707418613538323 0.5145285280942067 0.3757890058716984 2.2 0 0 0
40 2 4.440999987918662 1.386496948958408 7.095371143964327 0.7756668445889442 0.08341559139378203 0.6256059345289623 2.2 0 0 0
41 1 5.593366303384183 8.579510977973456 5.73130679988313 -0.914116260405412 0.3395646613979526 -0.22155654626329338 2.2 0 -1 0
42 2 7.05795396228115 1.5292440592924221 7.272204527739403 -0.9191491711153043 -0.029778659195555494 0.39278242411615627 2.2 0 0 0
43 1 8.464661422433348 2.889426837289404 5.8067543230138385 -0.571204500324157 0.4025107141618414 -0.7153394605320991 2.2 -1 0 0
44 2 1.4607695194302333 4.16721306393288 7.175115519911768 -0.6250996030809576 0.7614638858347974 -0.17153202848856 2.2 0 0 0
45 1 2.831682955906753 2.7490899248045237 5.720466189635168 0.21965908080405128 0.6978000736186037 0.6817807165637573 2.2 0 0 0
46 2 4.3521205312210345 4.18911823193051 7.27667405609358 -0.5852787797424828 -0.753751743632064 -0.29884286666201987 2.2 0 0 0
47 1 5.721644252153215 2.91934593909428 5.872998357569506 -0.9587744745364455 0.14221286076723386 -0.24602237542500513 2.2 0 0 0
48 2 7.21543637581531 4.276568327918948 7.109237333763955 -0.04549044844918831 -0.710777164302082 -0.7019447569478546 2.2 0 0 0
49 1 0.11366957575611054 5.655309732949493 5.683431682142199 0.1257576329746655 -0.94301535160687 -0.3080699017794191 2.2 0 0 0
50 2 1.5435215110810923 7.307286739918245 7.261887805957376 -0.7105857683931379 0.6860203251656976 0.15634570418365865 2.2 0 0 0
51 1 2.7651438205706973 5.800642331712188 5.743769086757485 0.657279133226364 -0.09497674626010266 0.7476386551637387 2.2 0 0 0
52 2 4.315971013054389 7.188666405124539 7.260670928130879 -0.6018222548885457 -0.05217078425221548 -0.7969242014090018 2.2 0 0 0
53 1 5.608358945494696 5.728996929363613 5.816141814259074 0.4464253889481603 0.7676165998659296 -0.4598577255116555 2.2 0 0 0
54 2 7.197832317636235 7.094462512206676 7.143792657606707 -0.6911433200648589 -0.7126327948370595 -0.1203138015875387 2.2 0 0 0

Velocities

1 -0.6219259447119346 1.8942399094996802 -1.5163570966343516
2 0.39843415160770373 -1.3733132574499773 0.2968496443183828
3 0.19829962362883374 -1.3868460503489475 -0.049034514093927166
4 -0.8789246898435384 1.6967875266524315 0.6999108669462516
5 -1.4178633066629787 2.0366909429639586 1.6832664738404335
6 -0.8030120590326723 0.6598019387704314 -1.2234928423961764
7 0.8672723336637544 -1.5433807984922885 0.0008191402025893039
8 -0.39285648837587195 -0.26162856395591433 -2.072845262230236
9 -0.8716530961982268 -0.3516742415553475 1.3844927859843048
10 -0.633150384371129 1.7807374283872432 1.913399038732564
11 1.9120593624791433 -1.3330979807736523 -0.8193922933434964
12 -1.734883639683724 0.008203968172298036 -0.4229971807569343
13 2.1844935328649155 1.1934718248391838 -0.13202779710782153
14 -1.624067214515666 -1.432180706630171 0.7238193453890511
15 1.0614573661376527 1.3146109719725771 0.5255257167878701
16 -0.1388685881975725 0.7513676535138871 -0.5580728463612432
17 -0.9837812438809403 0.46709636476756594 -0.6407323255437422
18 -1.5330602172387549 -1.587322676673822 -1.527312961227391
19 1.030094210148402 1.2369016499306884 1.3598305143449048
20 -1.078443534180231 -0.823654033373329 0.1723400230688986
21 -1.9543345478165284 0.9967647052270353 1.755175617602826
22 2.181539857609133 -1.3150344813648667 -1.4541462716789169
23 0.3657340782911974 1.7888153837357483 0.562754674893759
24 -0.47597822961699 -0.41092705943127544 -0.38052793508192123
25 -1.8376628398200263 -0.5866101544705913 -0.7893470313708706
26 0.2690266603851206 0.4048152748778091 -1.8831058182245999
27 0.5217413016903644 1.4426558482365222 1.5553350570386604
28 1.87078628477835 -0.8557128730694098 1.2569783815412914
29 1.4256070992455165 -1.5447067435953823 -0.8598339721581943
30 1.1569737021214075 -0.18029779937044188 -2.030182688719032
31 -0.25844335635433097 0.6769241175202454 -0.539418147791583
32 -0.5956552874758089 2.0803476291157414 -1.5818238687514463
33 -1.1307537375762993 -1.59648686226117 -1.2933352333534813
34 0.35482946729372616 -1.519129273929984 0.5305739874412024
35 0.8760404197640353 0.13519988863267127 0.1166169571351933
36 1.7612172971425821 0.1258481715923275 1.4836548015741797
37 -0.21715983119659893 0.37512941859295496 0.5201535091241055
38 -1.8157104561390776 -0.13440487656332842 -1.9900535417077632
39 -0.6230188432855926 0.6654985703009093 0.25196585486533885
40 1.3588399918629543 -1.055353790632905 0.9697533457079325
41 1.6290355092697995 -1.8746146253162823 -0.959388350014577
42 -0.9940078496414982 -0.015416770226520207 1.0790685275816452
43 1.6834619751632842 0.18703202110814002 1.4243143176424686
44 -0.4575918986009709 0.09524853794406898 1.3837617233892041
45 -1.8953340771291218 -1.4794137711897524 -0.415566000012033
46 -1.3685844360903163 -1.004173273389484 -0.10444400467569673
47 -1.5261318971785882 -0.835381096275055 0.18105119886230014
48 1.9222805509659062 -0.9416329664498148 1.2096891988139455
49 -1.8044250437164857 1.0038668389658556 1.143502448063418
50 0.44928721011389844 0.6186928897351464 -2.274179200566352
51 2.2457591882033126 -1.775859445990746 0.562127959168041
52 1.7567352064250366 1.923571929014318 -1.2967485268786465
53 0.970175408794166 1.133400350143626 1.48339130258336
54 -0.7838990511187164 0.5245324185673973 0.5842432980363024
