LAMMPS (10 Dec 2025 - Development - patch_10Dec2025-670-gf52584f29b-modified)
# AIREBO-BC polyethylene benchmark

units               metal
atom_style          atomic

read_data           data.airebo
Reading data file ...
  orthogonal box = (-2.1 -2.1 0) to (2.1 2.1 25.579)
  1 by 1 by 4 MPI processor grid
  reading atoms ...
  60 atoms
  read_data CPU = 0.001 seconds

replicate           17 16 2
Replication is creating a 17x16x2 = 544 times larger system...
  orthogonal box = (-2.1 -2.1 0) to (69.3 65.1 51.158)
  2 by 2 by 1 MPI processor grid
  32640 atoms
  replicate CPU = 0.001 seconds

neighbor            0.5 bin
neigh_modify        delay 5 every 1

pair_style          airebo/bc 3.0 1 1
pair_coeff          * * CH.airebo-bc C H
Reading airebo potential file CH.airebo-bc with DATE: 2011-10-25

velocity            all create 300.0 761341

fix                 1 all nve
timestep            0.0005

thermo              10
run                 100
Neighbor list info ...
  update: every = 1 steps, delay = 5 steps, check = yes
  max neighbors/atom: 2000, page size: 100000
  master list distance cutoff = 10.7
  ghost atom cutoff = 10.7
  binsize = 5.35, bins = 14 13 10
  1 neighbor lists, perpetual/occasional/extra = 1 0 0
  (1) pair airebo/bc, perpetual
      attributes: full, newton on, ghost
      pair build: full/bin/ghost
      stencil: full/ghost/bin/3d
      bin: standard
Per MPI rank memory allocation (min/avg/max) = 29.43 | 29.81 | 30.19 Mbytes
   Step          Temp          E_pair         E_mol          TotEng         Press     
         0   300           -138003.53      0             -136737.86      22845.327    
        10   172.03894     -137460.95      0             -136735.13      45629.079    
        20   217.53943     -137653.48      0             -136735.7       1206.7443    
        30   140.05964     -137323.02      0             -136732.12      12850.917    
        40   150.54242     -137367.36      0             -136732.23      18917.008    
        50   127.97696     -137272.04      0             -136732.12      35681.218    
        60   160.10865     -137408.39      0             -136732.9       52163.001    
        70   181.99859     -137502.71      0             -136734.87      15704.123    
        80   161.41296     -137416.51      0             -136735.52      25664.521    
        90   192.28138     -137547.02      0             -136735.8      -7302.2166    
       100   195.49114     -137560.37      0             -136735.61      35801.608    
Loop time of 10.6866 on 4 procs for 100 steps with 32640 atoms

Performance: 0.404 ns/day, 59.370 hours/ns, 9.358 timesteps/s, 305.429 katom-step/s
99.8% CPU use with 4 MPI tasks x no OpenMP threads

MPI task timing breakdown:
Section |  min time  |  avg time  |  max time  |%varavg| %total
---------------------------------------------------------------
Pair    | 8.7915     | 8.807      | 8.8235     |   0.5 | 82.41
Neigh   | 1.7524     | 1.7562     | 1.7595     |   0.2 | 16.43
Comm    | 0.098731   | 0.11448    | 0.13187    |   4.4 |  1.07
Output  | 0.00026438 | 0.00031523 | 0.00041604 |   0.0 |  0.00
Modify  | 0.0054418  | 0.0055127  | 0.0055791  |   0.1 |  0.05
Other   |            | 0.003045   |            |       |  0.03

Nlocal:           8160 ave        8172 max        8148 min
Histogram: 2 0 0 0 0 0 0 0 0 2
Nghost:          22613 ave       22625 max       22602 min
Histogram: 2 0 0 0 0 0 0 0 0 2
Neighs:              0 ave           0 max           0 min
Histogram: 4 0 0 0 0 0 0 0 0 0
FullNghs:  5.55295e+06 ave 5.56291e+06 max 5.54178e+06 min
Histogram: 1 0 1 0 0 0 0 0 1 1

Total # of neighbors = 22211784
Ave neighs/atom = 680.50809
Neighbor list builds = 8
Dangerous builds = 0
Total wall time: 0:00:11
